/*--------------------------------*- C++ -*----------------------------------*\
| =========                 |                                                 |
| \\      /  F ield         | OpenFOAM: The Open Source CFD Toolbox           |
|  \\    /   O peration     | Version:  v2012                                 |
|   \\  /    A nd           | Website:  www.openfoam.com                      |
|    \\/     M anipulation  |                                                 |
\*---------------------------------------------------------------------------*/
FoamFile
{
    version     2.0;
    format      ascii;
    class       volScalarField;
    location    "0.4";
    object      p;
}
// * * * * * * * * * * * * * * * * * * * * * * * * * * * * * * * * * * * * * //

dimensions      [0 2 -2 0 0 0 0];


internalField   nonuniform List<scalar> 
2400
(
-1.58993e-09
1.03651e-05
3.48004e-05
6.67121e-05
9.95299e-05
0.000134572
0.000165075
0.000189747
0.000208826
0.000221109
0.000225598
0.000212908
0.000169092
7.23629e-05
-8.78018e-05
-0.000294767
-0.000511812
-0.000681527
-0.000731593
-0.000583138
6.47906e-06
1.30719e-05
2.82924e-05
5.79287e-05
9.71555e-05
0.000136267
0.000170537
0.000204805
0.000237926
0.000262704
0.000265207
0.000221457
0.000116875
-4.44256e-05
-0.000245498
-0.000455403
-0.000644933
-0.000777162
-0.00080086
-0.000652394
7.35045e-06
1.47051e-05
2.81213e-05
5.3132e-05
9.24164e-05
0.000138937
0.000180734
0.000214731
0.000238799
0.000243187
0.000215284
0.000146332
3.25831e-05
-0.000120818
-0.000295174
-0.000470065
-0.000620491
-0.00071761
-0.000722485
-0.000586936
7.37473e-06
1.66483e-05
3.45799e-05
5.23998e-05
8.09767e-05
0.000129688
0.000181756
0.000217672
0.000232483
0.000221685
0.000180391
0.000105499
-5.76468e-06
-0.000150892
-0.00031654
-0.000481281
-0.000621642
-0.000709866
-0.000712768
-0.000589718
8.18972e-06
1.66203e-05
3.48222e-05
5.50265e-05
7.72395e-05
0.000116531
0.000167473
0.000206671
0.000218678
0.000197842
0.000143431
5.70261e-05
-5.73225e-05
-0.000195457
-0.000346259
-0.000491021
-0.00060874
-0.000676514
-0.000667874
-0.000553357
8.69149e-06
1.65034e-05
3.26245e-05
5.55204e-05
7.88918e-05
0.000106102
0.000140651
0.000173829
0.000189191
0.000168845
0.000108961
1.58975e-05
-0.000100481
-0.000230357
-0.000362007
-0.00047992
-0.000569038
-0.000613434
-0.000594558
-0.000492691
8.17603e-06
1.59592e-05
3.08571e-05
5.14264e-05
7.37193e-05
9.54778e-05
0.000116026
0.000133708
0.000141947
0.000127358
7.52571e-05
-1.32212e-05
-0.000125705
-0.000246551
-0.00036281
-0.000461782
-0.000530779
-0.000558427
-0.000532413
-0.000441095
6.93288e-06
1.42138e-05
2.79642e-05
4.48124e-05
6.23426e-05
8.01363e-05
9.31416e-05
9.63802e-05
9.05396e-05
7.37242e-05
3.54415e-05
-3.43397e-05
-0.000131297
-0.000242283
-0.000350538
-0.00043983
-0.000498406
-0.000516699
-0.000486393
-0.000402518
4.82214e-06
1.09708e-05
2.2333e-05
3.59772e-05
4.78225e-05
5.88328e-05
6.62038e-05
6.18438e-05
4.55989e-05
2.25573e-05
-1.00931e-05
-6.13403e-05
-0.000136511
-0.000229142
-0.000326105
-0.00040966
-0.000465496
-0.000484111
-0.000456923
-0.000381525
1.17048e-06
6.07499e-06
1.41964e-05
2.41015e-05
3.10095e-05
3.49861e-05
3.55131e-05
2.73344e-05
7.45529e-06
-2.06093e-05
-5.29643e-05
-9.4006e-05
-0.000148938
-0.000218544
-0.000295753
-0.000368568
-0.00042386
-0.000450287
-0.000437457
-0.00037877
-4.27143e-06
-8.48722e-07
3.9019e-06
9.37577e-06
1.17588e-05
9.86987e-06
4.88282e-06
-6.89653e-06
-2.81885e-05
-5.65001e-05
-8.85276e-05
-0.000124299
-0.000167086
-0.000217573
-0.000274349
-0.000330847
-0.000378189
-0.000408958
-0.000412251
-0.000377501
-1.18413e-05
-9.9273e-06
-8.41117e-06
-7.60259e-06
-9.57502e-06
-1.58495e-05
-2.5308e-05
-3.96238e-05
-6.12166e-05
-8.8493e-05
-0.000117951
-0.000149199
-0.000184398
-0.000224106
-0.000265781
-0.00030633
-0.000341491
-0.000367525
-0.000379143
-0.000365665
-2.15001e-05
-2.13186e-05
-2.26584e-05
-2.57583e-05
-3.19412e-05
-4.1783e-05
-5.41307e-05
-7.00553e-05
-9.14817e-05
-0.000117242
-0.000144063
-0.000170745
-0.000199644
-0.000231932
-0.000265356
-0.000296031
-0.000320656
-0.000338274
-0.000348067
-0.000344956
-3.31833e-05
-3.4597e-05
-3.86099e-05
-4.47923e-05
-5.40423e-05
-6.69574e-05
-8.17181e-05
-9.82744e-05
-0.000118817
-0.000142875
-0.000167512
-0.000190819
-0.000214256
-0.000240176
-0.000267861
-0.000293632
-0.000313111
-0.000324488
-0.000329267
-0.000327578
-4.66375e-05
-4.93979e-05
-5.55612e-05
-6.43133e-05
-7.58026e-05
-9.06058e-05
-0.000107263
-0.000124338
-0.000143492
-0.000165592
-0.00018845
-0.000209655
-0.00022937
-0.000249906
-0.000272155
-0.000293954
-0.000311498
-0.000321635
-0.00032442
-0.00032206
-6.13186e-05
-6.51298e-05
-7.29196e-05
-8.35938e-05
-9.67355e-05
-0.000112567
-0.000130234
-0.000147995
-0.000166156
-0.000186074
-0.000207025
-0.000226758
-0.000244357
-0.000261142
-0.000278736
-0.000296776
-0.000312748
-0.000323617
-0.000328044
-0.000327075
-7.6493e-05
-8.10366e-05
-8.99326e-05
-0.000101972
-0.000116278
-0.000132703
-0.000150686
-0.000168805
-0.000186531
-0.000204739
-0.000223703
-0.000242113
-0.000258638
-0.000273512
-0.000288046
-0.000302815
-0.000316779
-0.000327899
-0.000334476
-0.000336459
-9.1162e-05
-9.62233e-05
-0.000105775
-0.000118635
-0.000133682
-0.000150378
-0.000168374
-0.000186669
-0.000204335
-0.000221552
-0.000238841
-0.000255843
-0.000271591
-0.000285717
-0.000298812
-0.000311637
-0.000324153
-0.000335332
-0.000343827
-0.000348891
-0.000104387
-0.00010962
-0.000119362
-0.000132473
-0.000147842
-0.000164662
-0.000182478
-0.000200651
-0.000218361
-0.000235268
-0.000251565
-0.00026735
-0.000282248
-0.000295797
-0.000307996
-0.000319302
-0.000330127
-0.000340405
-0.000349553
-0.000356842
-0.000116132
-0.000122017
-0.000132353
-0.000146013
-0.000161959
-0.000179292
-0.000197374
-0.000215666
-0.000233546
-0.000250536
-0.00026653
-0.000281626
-0.000295794
-0.000308853
-0.000320706
-0.000331514
-0.000341586
-0.00035113
-0.000360094
-0.000368239
-0.000234137
0.00018238
0.000529734
0.000749198
0.000826252
0.000776922
0.000638578
0.000456973
0.00027466
0.000119891
-5.25387e-07
-9.63163e-05
-0.000177628
-0.000243672
-0.000282756
-0.00028751
-0.000270037
-0.000256793
-0.000274643
-0.00033094
-0.000403076
-0.000457028
-0.000477754
-0.000485852
-0.000515402
-0.000573961
-0.00063615
-0.000674511
-0.000688628
-0.000699772
-0.000728092
-0.000775708
-0.000820057
-0.000844087
-0.000864294
-0.000903474
-0.000957764
-0.00100105
-0.00101844
-0.00103582
-0.00107938
-0.00112645
-0.00115411
-0.00118576
-0.00123771
-0.00128714
-0.00132137
-0.00135518
-0.00139464
-0.00143121
-0.00146565
-0.00150501
-0.0015499
-0.00159473
-0.00163644
-0.00167797
-0.00172522
-0.00177535
-0.00182136
-0.00186562
-0.00191485
-0.00196662
-0.00201549
-0.00206526
-0.0021189
-0.00217196
-0.00222188
-0.00227561
-0.00233675
-0.00239741
-0.00245099
-0.00250371
-0.00256764
-0.0026424
-0.00271461
-0.00277407
-0.00282688
-0.00289178
-0.00298134
-0.00309268
-0.00320787
-0.00330737
-0.00338039
-0.00342693
-0.00345284
-0.00347785
-0.00350328
-0.00353335
-0.00356845
-0.00360963
-0.00365463
-0.00370327
-0.00375404
-0.00380623
-0.00385944
-0.00391285
-0.00396568
-0.00401734
-0.00406574
-0.0041099
-0.000336126
5.28168e-05
0.000394171
0.000624221
0.000723381
0.000702284
0.000593129
0.000436435
0.000270835
0.000124088
4.84236e-06
-9.37425e-05
-0.000179549
-0.000250705
-0.000293806
-0.000300068
-0.00028128
-0.000265068
-0.000280359
-0.000334905
-0.000405888
-0.000459516
-0.000480409
-0.000489068
-0.000518942
-0.000577012
-0.000639207
-0.000678244
-0.000692039
-0.000701918
-0.000729611
-0.000777834
-0.000822799
-0.000846502
-0.000866117
-0.000905009
-0.00095939
-0.00100328
-0.00102082
-0.00103755
-0.00108107
-0.00112872
-0.00115596
-0.00118668
-0.0012387
-0.00128858
-0.00132258
-0.00135607
-0.00139575
-0.00143253
-0.001467
-0.00150652
-0.00155155
-0.0015962
-0.00163764
-0.00167902
-0.00172628
-0.00177652
-0.00182254
-0.00186664
-0.00191578
-0.00196756
-0.00201647
-0.00206619
-0.00211981
-0.00217288
-0.00222283
-0.00227651
-0.00233757
-0.00239815
-0.00245185
-0.00250472
-0.00256844
-0.00264287
-0.00271478
-0.00277445
-0.00282803
-0.00289316
-0.0029817
-0.00309104
-0.00320407
-0.00330224
-0.00337492
-0.00342182
-0.00345266
-0.00347731
-0.0035033
-0.00353367
-0.0035693
-0.00361045
-0.00365533
-0.00370378
-0.0037544
-0.00380642
-0.00385962
-0.0039129
-0.00396579
-0.00401733
-0.00406602
-0.00411064
-0.000313193
2.56833e-05
0.000330057
0.000541698
0.00063997
0.000632656
0.000546946
0.000416958
0.000274347
0.000141865
2.79226e-05
-7.17121e-05
-0.000162741
-0.000241593
-0.000292571
-0.000304145
-0.000286801
-0.000268944
-0.000281439
-0.000333567
-0.000402861
-0.000455523
-0.000476046
-0.000485288
-0.000516489
-0.000575186
-0.000637866
-0.000678192
-0.000692265
-0.000700729
-0.000727475
-0.000776393
-0.000822263
-0.000845544
-0.000864241
-0.000902953
-0.000957779
-0.00100253
-0.00102065
-0.00103729
-0.00108151
-0.00113046
-0.00115729
-0.00118664
-0.0012385
-0.00128829
-0.00132085
-0.00135319
-0.0013929
-0.00143067
-0.00146749
-0.00150949
-0.00155426
-0.0015968
-0.00163764
-0.00167953
-0.00172654
-0.00177681
-0.00182383
-0.00186764
-0.00191518
-0.00196701
-0.00201769
-0.00206748
-0.00211914
-0.00217196
-0.00222422
-0.00227903
-0.00233759
-0.00239592
-0.00245131
-0.0025078
-0.00257198
-0.00264191
-0.00270974
-0.0027708
-0.00282995
-0.00289925
-0.00298613
-0.00308717
-0.00318924
-0.00327875
-0.00334809
-0.00339831
-0.00343587
-0.00346513
-0.00349581
-0.00352889
-0.00356651
-0.00360876
-0.00365432
-0.00370318
-0.00375401
-0.0038062
-0.00385953
-0.00391276
-0.0039658
-0.0040174
-0.00406624
-0.00411114
-0.000344603
-4.1504e-05
0.000232927
0.000426659
0.00051994
0.000519935
0.000451849
0.000346588
0.00023087
0.000120921
2.14177e-05
-7.14953e-05
-0.00016168
-0.000243771
-0.000300747
-0.000318587
-0.000305336
-0.000288591
-0.000299008
-0.000347797
-0.000414674
-0.000465246
-0.000482934
-0.000489692
-0.000520694
-0.000580498
-0.000643643
-0.000684654
-0.000699751
-0.000707843
-0.00073309
-0.000781044
-0.000826753
-0.000849994
-0.000868304
-0.000906436
-0.000961432
-0.00100736
-0.00102595
-0.00104183
-0.0010858
-0.00113492
-0.00116081
-0.00118891
-0.00124056
-0.00129063
-0.0013231
-0.00135523
-0.00139528
-0.00143379
-0.00147109
-0.00151302
-0.00155743
-0.00159969
-0.00164028
-0.00168194
-0.001729
-0.00177945
-0.00182623
-0.00186944
-0.00191701
-0.00196932
-0.00201988
-0.00206893
-0.00212064
-0.00217435
-0.00222677
-0.00228041
-0.00233814
-0.00239748
-0.00245431
-0.00251069
-0.00257252
-0.00264061
-0.00270951
-0.00277339
-0.00283462
-0.00290274
-0.00298477
-0.00307947
-0.00317747
-0.00326697
-0.0033393
-0.00339211
-0.00343309
-0.00346352
-0.00349503
-0.00352927
-0.00356732
-0.00360963
-0.00365506
-0.00370374
-0.00375439
-0.00380643
-0.00385969
-0.00391286
-0.00396584
-0.00401749
-0.00406641
-0.00411158
-0.000337841
-7.49327e-05
0.00016283
0.000331744
0.000414148
0.000415914
0.000359863
0.000274453
0.00018325
9.76833e-05
1.71465e-05
-6.46281e-05
-0.000150182
-0.000232172
-0.000292473
-0.000315988
-0.000308803
-0.000296339
-0.000307869
-0.000354961
-0.000420243
-0.000470213
-0.000485021
-0.000486677
-0.000515049
-0.000576069
-0.00064104
-0.000682721
-0.000699335
-0.00070997
-0.000735511
-0.000781287
-0.000825293
-0.000848185
-0.000866651
-0.000904323
-0.000958646
-0.00100608
-0.00102688
-0.00104208
-0.00108472
-0.00113482
-0.00116117
-0.00118798
-0.00123954
-0.00129069
-0.00132279
-0.00135363
-0.00139313
-0.00143184
-0.00147025
-0.00151397
-0.00155883
-0.00159985
-0.00163993
-0.0016821
-0.00172903
-0.00177908
-0.00182649
-0.0018701
-0.00191676
-0.00196847
-0.00201996
-0.00206973
-0.00212055
-0.00217336
-0.0022266
-0.00228156
-0.00233889
-0.00239649
-0.00245289
-0.00251083
-0.00257392
-0.00264111
-0.00270751
-0.00277006
-0.00283274
-0.00290273
-0.00298434
-0.00307544
-0.00316673
-0.00324855
-0.00331548
-0.00336818
-0.00341045
-0.00344453
-0.0034855
-0.00352293
-0.00356324
-0.00360699
-0.00365335
-0.0037027
-0.00375368
-0.003806
-0.00385943
-0.00391265
-0.00396579
-0.00401754
-0.00406655
-0.00411192
-0.000314008
-9.95902e-05
9.4366e-05
0.000232992
0.000301391
0.000303251
0.000257721
0.000189837
0.000120439
5.78999e-05
-2.93326e-06
-7.21274e-05
-0.000151886
-0.000232675
-0.000294702
-0.00032126
-0.000317838
-0.000308766
-0.000322521
-0.000370328
-0.000435075
-0.000485187
-0.000498568
-0.000494149
-0.000516718
-0.000577222
-0.00064454
-0.000686733
-0.000702584
-0.000715526
-0.000744463
-0.000789708
-0.000830691
-0.000851338
-0.000869198
-0.000906963
-0.000961095
-0.00100985
-0.00103321
-0.0010484
-0.00108919
-0.00113898
-0.00116513
-0.00119008
-0.00124081
-0.00129319
-0.00132587
-0.00135603
-0.00139544
-0.00143471
-0.00147359
-0.00151774
-0.00156265
-0.00160314
-0.00164285
-0.00168498
-0.00173182
-0.00178192
-0.00182936
-0.00187247
-0.00191878
-0.00197092
-0.00202264
-0.0020717
-0.00212208
-0.00217571
-0.00222962
-0.00228374
-0.00233962
-0.0023975
-0.00245564
-0.00251426
-0.00257569
-0.00264016
-0.00270592
-0.00277082
-0.00283623
-0.00290613
-0.00298379
-0.00306831
-0.00315393
-0.00323446
-0.00330447
-0.00336204
-0.00340926
-0.00345066
-0.00348588
-0.00352292
-0.00356368
-0.00360758
-0.00365386
-0.00370313
-0.00375397
-0.00380621
-0.00385952
-0.00391285
-0.00396585
-0.00401759
-0.00406666
-0.00411219
-0.000292771
-0.000120278
3.28994e-05
0.000140572
0.000192382
0.00019156
0.000153981
0.000101199
5.12256e-05
1.02318e-05
-3.06326e-05
-8.58327e-05
-0.000158924
-0.000238652
-0.000302929
-0.000331724
-0.000328714
-0.000319243
-0.000332945
-0.000382397
-0.000448901
-0.000499678
-0.000512904
-0.000503556
-0.000517935
-0.00057564
-0.00064637
-0.000690859
-0.000704368
-0.000715732
-0.000747998
-0.000797026
-0.000837801
-0.000854853
-0.000868912
-0.000905806
-0.000960928
-0.00101047
-0.00103487
-0.00105067
-0.0010911
-0.00114089
-0.00116683
-0.00119024
-0.00124012
-0.00129397
-0.00132791
-0.00135729
-0.00139563
-0.00143447
-0.00147314
-0.00151816
-0.00156444
-0.00160468
-0.00164335
-0.00168543
-0.00173251
-0.00178235
-0.00182994
-0.00187344
-0.00191939
-0.00197088
-0.00202279
-0.00207248
-0.00212279
-0.00217575
-0.00222943
-0.0022841
-0.00234039
-0.00239789
-0.00245522
-0.0025136
-0.00257529
-0.00263989
-0.00270541
-0.00276957
-0.00283434
-0.00290357
-0.00297972
-0.00306164
-0.00314369
-0.0032198
-0.00328533
-0.00334004
-0.00338717
-0.00343055
-0.00347226
-0.00351465
-0.00355812
-0.00360382
-0.00365131
-0.00370147
-0.00375282
-0.00380546
-0.00385906
-0.00391244
-0.00396567
-0.00401756
-0.0040667
-0.00411235
-0.000276103
-0.000135672
-1.55013e-05
6.4646e-05
9.87737e-05
9.11717e-05
5.59864e-05
1.2926e-05
-2.21173e-05
-4.41769e-05
-6.48485e-05
-0.000103679
-0.000168037
-0.000246919
-0.000315152
-0.000347821
-0.000344244
-0.000330697
-0.000340791
-0.000390243
-0.000460303
-0.000514707
-0.000530037
-0.000518044
-0.000522883
-0.000573826
-0.000647626
-0.000697571
-0.000710634
-0.000716917
-0.000747163
-0.000800895
-0.000846892
-0.000862788
-0.000870927
-0.000904162
-0.000960947
-0.00101376
-0.00103882
-0.00105327
-0.00109413
-0.00114602
-0.00117151
-0.00119149
-0.00123938
-0.00129423
-0.00132982
-0.00135966
-0.00139789
-0.0014368
-0.00147506
-0.00151961
-0.00156676
-0.00160818
-0.00164643
-0.00168722
-0.00173396
-0.00178452
-0.00183259
-0.00187557
-0.00192083
-0.00197255
-0.00202497
-0.00207436
-0.002124
-0.0021772
-0.00223164
-0.00228619
-0.0023414
-0.00239832
-0.00245649
-0.0025158
-0.00257702
-0.00263983
-0.00270387
-0.00276837
-0.0028346
-0.00290415
-0.0029779
-0.0030551
-0.00313202
-0.00320545
-0.00327234
-0.00333169
-0.00338445
-0.00343085
-0.00347269
-0.00351466
-0.00355826
-0.00360413
-0.00365162
-0.00370174
-0.00375298
-0.00380565
-0.00385927
-0.00391242
-0.00396561
-0.00401754
-0.0040667
-0.00411245
-0.000271487
-0.000152442
-5.38227e-05
7.00903e-06
2.54259e-05
8.0066e-06
-3.0651e-05
-7.10549e-05
-9.76366e-05
-0.000105912
-0.000107925
-0.000127979
-0.000179677
-0.000255452
-0.00032874
-0.000368543
-0.00036759
-0.000349399
-0.000351603
-0.00039585
-0.00046722
-0.000527926
-0.000549059
-0.000537452
-0.000533503
-0.000573505
-0.000646842
-0.000704219
-0.000721142
-0.000722907
-0.000745749
-0.000800257
-0.000855469
-0.000875779
-0.000878708
-0.000904634
-0.000959645
-0.00101684
-0.00104481
-0.00105532
-0.0010932
-0.00114974
-0.00117845
-0.00119419
-0.00123864
-0.00129518
-0.00133254
-0.00136248
-0.00140105
-0.00144
-0.00147711
-0.00152036
-0.00156778
-0.00161103
-0.00165023
-0.00168963
-0.00173473
-0.00178553
-0.00183479
-0.00187796
-0.00192241
-0.00197353
-0.00202609
-0.00207587
-0.00212556
-0.00217844
-0.00223243
-0.00228686
-0.00234232
-0.00239945
-0.00245733
-0.00251589
-0.0025765
-0.00263907
-0.00270329
-0.00276776
-0.00283322
-0.00290116
-0.0029726
-0.00304727
-0.00312181
-0.00319307
-0.00325752
-0.00331422
-0.00336503
-0.0034117
-0.0034569
-0.0035034
-0.00355033
-0.00359874
-0.00364755
-0.00369904
-0.00375123
-0.00380401
-0.0038583
-0.00391191
-0.00396532
-0.00401739
-0.00406662
-0.00411245
-0.00028522
-0.000181081
-9.35991e-05
-4.02554e-05
-2.8657e-05
-5.32341e-05
-9.83501e-05
-0.000143321
-0.000170073
-0.000172689
-0.000161361
-0.000162212
-0.000196694
-0.00026338
-0.000339211
-0.00038933
-0.000396604
-0.000377359
-0.000369067
-0.000401576
-0.000468829
-0.000536193
-0.000568129
-0.000561476
-0.000551649
-0.00057787
-0.000644113
-0.000708566
-0.000734239
-0.000735225
-0.000748391
-0.000796194
-0.000858128
-0.000888715
-0.000890764
-0.000907626
-0.000956042
-0.0010162
-0.00105221
-0.00106171
-0.00109217
-0.00115158
-0.00118826
-0.00120083
-0.00123768
-0.00129453
-0.00133468
-0.00136443
-0.00140345
-0.00144369
-0.00148012
-0.00152148
-0.0015681
-0.00161279
-0.00165419
-0.00169312
-0.00173559
-0.00178589
-0.0018371
-0.00188088
-0.00192385
-0.00197429
-0.00202763
-0.00207774
-0.00212673
-0.00217923
-0.00223366
-0.00228838
-0.00234328
-0.00239966
-0.00245745
-0.00251644
-0.0025771
-0.00263884
-0.00270187
-0.00276559
-0.00283099
-0.00289872
-0.00296869
-0.00304036
-0.0031111
-0.00317947
-0.00324357
-0.00330307
-0.00335861
-0.00340969
-0.00345827
-0.003505
-0.00355194
-0.00360032
-0.00364938
-0.00370005
-0.00375167
-0.0038044
-0.00385833
-0.00391175
-0.00396511
-0.00401723
-0.00406649
-0.00411237
-0.000308881
-0.000223634
-0.000145153
-9.19981e-05
-7.55659e-05
-9.67434e-05
-0.000143961
-0.000196379
-0.000231824
-0.000239176
-0.000223311
-0.000208416
-0.000222341
-0.000273001
-0.000344887
-0.000404713
-0.000425895
-0.00041265
-0.000396456
-0.000413133
-0.00046947
-0.000538895
-0.000583706
-0.000587657
-0.000576505
-0.000589068
-0.000641535
-0.000708021
-0.000745196
-0.000750743
-0.000757087
-0.000793127
-0.000854805
-0.000898385
-0.000907026
-0.000917415
-0.000955907
-0.00101377
-0.00105857
-0.00107195
-0.00109232
-0.001148
-0.00119504
-0.0012103
-0.0012381
-0.00129257
-0.00133739
-0.00136764
-0.0014057
-0.00144756
-0.00148398
-0.00152327
-0.00156887
-0.00161417
-0.00165744
-0.00169745
-0.00173781
-0.0017858
-0.00183825
-0.00188415
-0.00192646
-0.0019752
-0.00202847
-0.00207939
-0.00212851
-0.00218064
-0.00223475
-0.00228923
-0.00234406
-0.00240056
-0.00245837
-0.00251689
-0.00257676
-0.00263788
-0.00270068
-0.00276432
-0.00282913
-0.0028954
-0.00296312
-0.00303245
-0.00310142
-0.00316867
-0.00323202
-0.00329029
-0.00334436
-0.00339463
-0.00344382
-0.00349257
-0.00354187
-0.00359247
-0.00364328
-0.00369577
-0.00374877
-0.00380245
-0.00385715
-0.00391105
-0.00396465
-0.00401693
-0.00406626
-0.0041122
-0.000324815
-0.000265933
-0.000204379
-0.000154166
-0.000128983
-0.00013687
-0.000174925
-0.000228455
-0.000274417
-0.000294686
-0.000286069
-0.000264685
-0.000260008
-0.00028974
-0.000349498
-0.000413061
-0.000449291
-0.000449207
-0.000432414
-0.000434663
-0.000474891
-0.000538595
-0.000592335
-0.000610387
-0.000603654
-0.000606856
-0.000643634
-0.000705293
-0.000752551
-0.000767538
-0.000772786
-0.000797363
-0.000850721
-0.000902463
-0.00092213
-0.000930521
-0.000958589
-0.00100923
-0.00105975
-0.00108301
-0.00109825
-0.00114455
-0.00119837
-0.00122207
-0.00124307
-0.00129073
-0.00133931
-0.00137183
-0.00140777
-0.00145053
-0.00148835
-0.00152597
-0.00157013
-0.00161527
-0.00165941
-0.00170137
-0.00174148
-0.00178657
-0.00183859
-0.0018869
-0.00192959
-0.00197657
-0.0020295
-0.00208137
-0.00213045
-0.0021818
-0.00223578
-0.00229063
-0.00234539
-0.00240133
-0.00245865
-0.002517
-0.00257677
-0.00263748
-0.0026995
-0.00276222
-0.00282613
-0.00289151
-0.002958
-0.00302544
-0.00309187
-0.00315668
-0.00321873
-0.00327767
-0.00333444
-0.00338834
-0.00344087
-0.00349173
-0.0035421
-0.00359307
-0.00364388
-0.00369618
-0.0037489
-0.00380229
-0.00385677
-0.00391062
-0.00396424
-0.0040166
-0.00406598
-0.00411195
-0.000325928
-0.000293903
-0.000255592
-0.000218126
-0.00019102
-0.000185662
-0.000207146
-0.000250177
-0.000298545
-0.000331916
-0.000338549
-0.000323279
-0.000308826
-0.000318871
-0.000359965
-0.000417816
-0.000463801
-0.000479643
-0.000471263
-0.000465838
-0.000488988
-0.000539806
-0.000594965
-0.000626443
-0.000630157
-0.000631202
-0.000654943
-0.000705184
-0.000755584
-0.000781154
-0.000790597
-0.000807593
-0.000848384
-0.000900607
-0.00093234
-0.000945632
-0.000967685
-0.00100943
-0.00105938
-0.00109239
-0.00110894
-0.001144
-0.00119685
-0.00123077
-0.00125131
-0.00129058
-0.00133968
-0.00137626
-0.0014106
-0.00145257
-0.00149248
-0.00152972
-0.0015723
-0.00161698
-0.00166105
-0.00170449
-0.00174592
-0.00178885
-0.0018388
-0.00188891
-0.00193336
-0.00197886
-0.00203027
-0.00208276
-0.00213266
-0.00218369
-0.0022371
-0.00229167
-0.00234622
-0.00240195
-0.00245916
-0.00251725
-0.00257642
-0.00263636
-0.0026977
-0.00275987
-0.0028231
-0.00288732
-0.00295206
-0.00301754
-0.00308244
-0.00314658
-0.00320865
-0.00326781
-0.00332451
-0.00337804
-0.00343052
-0.00348198
-0.00353349
-0.00358592
-0.00363825
-0.00369199
-0.00374596
-0.00380031
-0.00385546
-0.00390973
-0.00396359
-0.0040161
-0.00406557
-0.00411159
-0.000319329
-0.000306313
-0.000290024
-0.000270802
-0.000252112
-0.000241799
-0.000248556
-0.000275254
-0.000315089
-0.000352916
-0.000373857
-0.000372817
-0.000360986
-0.000359107
-0.000381362
-0.000425323
-0.000471883
-0.000500236
-0.000505259
-0.000501549
-0.000512826
-0.000548632
-0.000597343
-0.000636227
-0.000652259
-0.000657334
-0.000672644
-0.000709226
-0.00075599
-0.000789992
-0.0008073
-0.000822974
-0.000853628
-0.000899975
-0.000938794
-0.000959672
-0.000979715
-0.00101312
-0.00105779
-0.00109697
-0.00112023
-0.00114843
-0.00119474
-0.00123572
-0.00126123
-0.00129412
-0.0013399
-0.0013802
-0.00141482
-0.00145483
-0.00149619
-0.00153421
-0.00157522
-0.00161911
-0.00166299
-0.001707
-0.0017501
-0.00179239
-0.00183972
-0.00189003
-0.00193664
-0.00198193
-0.0020317
-0.00208412
-0.00213461
-0.00218527
-0.00223806
-0.00229264
-0.0023473
-0.00240269
-0.0024593
-0.00251685
-0.00257562
-0.00263516
-0.00269597
-0.00275745
-0.0028198
-0.00288303
-0.0029467
-0.003011
-0.00307458
-0.00313724
-0.00319802
-0.00325662
-0.00331386
-0.00336911
-0.00342387
-0.00347747
-0.00353055
-0.00358398
-0.00363685
-0.00369085
-0.00374493
-0.00379935
-0.0038546
-0.003909
-0.00396297
-0.00401558
-0.00406512
-0.00411119
-0.0003174
-0.000313249
-0.000310472
-0.000306903
-0.000300764
-0.000294664
-0.000295098
-0.000308334
-0.000335067
-0.000367929
-0.000395219
-0.000407638
-0.000406039
-0.000402914
-0.0004126
-0.000441033
-0.000480211
-0.000513906
-0.000531201
-0.000535443
-0.000542295
-0.000565205
-0.000603073
-0.000642254
-0.000667866
-0.00068031
-0.000693458
-0.000720132
-0.000759822
-0.00079705
-0.000821446
-0.000839454
-0.000863948
-0.000901595
-0.000941307
-0.000969667
-0.00099208
-0.00102079
-0.00105948
-0.0011
-0.00112998
-0.00115648
-0.00119525
-0.00123795
-0.00126978
-0.00130043
-0.00134135
-0.0013831
-0.00141944
-0.00145781
-0.00149935
-0.00153869
-0.00157883
-0.00162178
-0.00166547
-0.00170938
-0.00175358
-0.0017965
-0.00184195
-0.00189116
-0.00193924
-0.00198512
-0.00203346
-0.00208518
-0.00213637
-0.00218729
-0.00223949
-0.00229353
-0.00234796
-0.00240314
-0.00245956
-0.00251694
-0.00257541
-0.00263439
-0.00269448
-0.00275516
-0.00281664
-0.00287882
-0.00294117
-0.00300393
-0.00306603
-0.00312768
-0.00318823
-0.00324729
-0.0033053
-0.00336126
-0.00341654
-0.00347066
-0.00352441
-0.00357867
-0.00363249
-0.00368741
-0.00374233
-0.00379741
-0.00385314
-0.00390789
-0.00396209
-0.00401487
-0.00406451
-0.00411062
-0.000324132
-0.000323252
-0.000326115
-0.000331054
-0.000334935
-0.00033638
-0.00033813
-0.00034516
-0.000361295
-0.000385446
-0.000411223
-0.000430609
-0.00043937
-0.000441736
-0.000447486
-0.00046478
-0.000493716
-0.000525302
-0.00054917
-0.000561966
-0.000570826
-0.000587122
-0.000615504
-0.000650244
-0.00067985
-0.000699095
-0.000714349
-0.000735766
-0.000767688
-0.000802949
-0.00083148
-0.000853504
-0.000876575
-0.000907901
-0.000944993
-0.000977424
-0.00100328
-0.0010305
-0.00106442
-0.00110276
-0.00113658
-0.00116509
-0.00119919
-0.00123985
-0.00127586
-0.0013076
-0.00134479
-0.00138576
-0.00142391
-0.00146174
-0.00150253
-0.00154282
-0.00158292
-0.00162495
-0.00166834
-0.00171195
-0.00175647
-0.00180024
-0.00184486
-0.00189258
-0.00194124
-0.0019883
-0.00203605
-0.00208675
-0.00213804
-0.00218921
-0.0022411
-0.00229485
-0.00234933
-0.00240442
-0.00246038
-0.00251715
-0.00257499
-0.00263333
-0.00269276
-0.00275276
-0.00281347
-0.00287476
-0.00293616
-0.00299801
-0.00305933
-0.00312036
-0.00318045
-0.00323921
-0.00329722
-0.00335357
-0.00340967
-0.00346489
-0.00351977
-0.003575
-0.00362959
-0.00368511
-0.00374049
-0.00379593
-0.00385195
-0.00390693
-0.0039613
-0.0040142
-0.00406393
-0.00411009
-0.000336285
-0.000337432
-0.000342156
-0.000350055
-0.000358907
-0.000366463
-0.000372377
-0.000379004
-0.00038985
-0.0004067
-0.000427598
-0.000447783
-0.000462701
-0.00047167
-0.000479121
-0.00049152
-0.000512271
-0.000538578
-0.000563666
-0.000582421
-0.000595929
-0.000610755
-0.000632423
-0.000660676
-0.000689536
-0.000713245
-0.000732402
-0.000752717
-0.000779075
-0.000810254
-0.000840153
-0.000865876
-0.000889862
-0.000917438
-0.000950387
-0.000983377
-0.00101227
-0.00104023
-0.00107142
-0.00110666
-0.0011416
-0.00117293
-0.00120527
-0.00124266
-0.00128
-0.00131402
-0.00134954
-0.00138867
-0.00142764
-0.00146566
-0.00150552
-0.00154612
-0.00158659
-0.00162795
-0.00167086
-0.00171423
-0.0017587
-0.00180316
-0.00184783
-0.00189434
-0.00194264
-0.00199053
-0.00203831
-0.00208817
-0.00213926
-0.00219075
-0.00224247
-0.00229564
-0.00234965
-0.00240438
-0.00245997
-0.0025164
-0.00257393
-0.00263191
-0.00269083
-0.0027502
-0.00281017
-0.00287063
-0.00293113
-0.00299206
-0.00305248
-0.00311276
-0.00317238
-0.00323104
-0.00328934
-0.00334627
-0.00340308
-0.00345904
-0.00351465
-0.0035706
-0.00362589
-0.00368206
-0.00373801
-0.00379395
-0.00385036
-0.00390566
-0.00396027
-0.00401333
-0.00406316
-0.00410937
-0.000351685
-0.000354628
-0.000359866
-0.000368111
-0.000378429
-0.00038898
-0.000398476
-0.000407249
-0.000417038
-0.000429792
-0.000445984
-0.000463975
-0.000480814
-0.00049447
-0.000505753
-0.000517811
-0.000533909
-0.000554726
-0.000577551
-0.000598655
-0.000616328
-0.000632623
-0.00065139
-0.000674693
-0.000700907
-0.000726195
-0.000748521
-0.000769704
-0.000793159
-0.000820616
-0.000849738
-0.000877226
-0.000902792
-0.000929245
-0.00095886
-0.000990559
-0.00102128
-0.00105065
-0.0010807
-0.0011135
-0.00114791
-0.00118107
-0.00121347
-0.00124844
-0.00128528
-0.00132097
-0.00135644
-0.00139404
-0.00143285
-0.00147122
-0.00151057
-0.001551
-0.00159181
-0.00163294
-0.00167548
-0.00171862
-0.0017628
-0.00180745
-0.00185245
-0.00189835
-0.00194595
-0.00199415
-0.00204223
-0.00209153
-0.00214202
-0.00219345
-0.00224509
-0.00229796
-0.00235173
-0.00240637
-0.00246176
-0.0025178
-0.00257483
-0.00263226
-0.00269058
-0.00274929
-0.00280857
-0.00286829
-0.00292802
-0.00298818
-0.00304791
-0.00310766
-0.00316692
-0.00322541
-0.00328371
-0.00334082
-0.00339797
-0.00345441
-0.00351057
-0.0035671
-0.00362294
-0.00367961
-0.00373601
-0.00379232
-0.00384903
-0.00390457
-0.00395937
-0.00401256
-0.00406248
-0.00410875
-0.000362611
-0.000368073
-0.000374473
-0.000382633
-0.000392627
-0.000403795
-0.000415176
-0.000426186
-0.000437067
-0.00044874
-0.000462086
-0.000477196
-0.000493149
-0.000508622
-0.000522946
-0.000536796
-0.000551779
-0.0005692
-0.000588909
-0.000609386
-0.000628962
-0.000647444
-0.000666213
-0.000686973
-0.000710111
-0.000734304
-0.000757866
-0.000780576
-0.000803738
-0.000828973
-0.000856045
-0.000883502
-0.000910344
-0.000937048
-0.000965092
-0.000995222
-0.00102586
-0.001056
-0.00108625
-0.00111787
-0.00115105
-0.00118464
-0.00121773
-0.00125176
-0.00128755
-0.00132371
-0.00135968
-0.0013966
-0.00143485
-0.00147343
-0.00151268
-0.00155275
-0.00159361
-0.00163481
-0.00167714
-0.00172006
-0.00176398
-0.00180858
-0.00185386
-0.00189964
-0.00194665
-0.00199471
-0.00204309
-0.00209231
-0.00214244
-0.0021938
-0.0022455
-0.0022982
-0.00235167
-0.00240603
-0.00246116
-0.0025169
-0.00257361
-0.0026307
-0.00268864
-0.00274693
-0.00280571
-0.0028649
-0.00292407
-0.00298369
-0.00304291
-0.00310224
-0.00316124
-0.00321966
-0.00327808
-0.00333547
-0.00339304
-0.00344997
-0.00350666
-0.00356372
-0.00362007
-0.00367721
-0.00373402
-0.00379069
-0.00384771
-0.00390349
-0.00395846
-0.00401179
-0.00406178
-0.00410809
-0.000375864
-0.000383586
-0.000391832
-0.000400968
-0.000411171
-0.000422318
-0.00043402
-0.000445872
-0.000457726
-0.000469823
-0.000482639
-0.000496528
-0.000511415
-0.0005268
-0.000542131
-0.000557305
-0.000572786
-0.000589339
-0.000607368
-0.000626577
-0.000646181
-0.000665624
-0.000685063
-0.000705283
-0.000726875
-0.000749741
-0.000773093
-0.000796415
-0.000819891
-0.000844292
-0.00087
-0.000896725
-0.000923641
-0.000950652
-0.000978325
-0.00100725
-0.00103707
-0.00106734
-0.00109776
-0.00112888
-0.00116117
-0.00119433
-0.00122763
-0.00126147
-0.00129644
-0.00133221
-0.00136833
-0.00140501
-0.00144275
-0.00148115
-0.00152024
-0.00155991
-0.00160056
-0.00164172
-0.00168383
-0.00172647
-0.00177014
-0.0018145
-0.00185972
-0.00190546
-0.00195214
-0.00199988
-0.00204819
-0.00209731
-0.00214709
-0.00219808
-0.00224956
-0.00230203
-0.0023552
-0.00240931
-0.0024642
-0.00251969