/*--------------------------------*- C++ -*----------------------------------*\
| =========                 |                                                 |
| \\      /  F ield         | OpenFOAM: The Open Source CFD Toolbox           |
|  \\    /   O peration     | Version:  v2012                                 |
|   \\  /    A nd           | Website:  www.openfoam.com                      |
|    \\/     M anipulation  |                                                 |
\*---------------------------------------------------------------------------*/
FoamFile
{
    version     2.0;
    format      ascii;
    class       volScalarField;
    location    "0.3";
    object      p;
}
// * * * * * * * * * * * * * * * * * * * * * * * * * * * * * * * * * * * * * //

dimensions      [0 2 -2 0 0 0 0];


internalField   nonuniform List<scalar> 
2400
(
-3.61087e-09
1.0349e-05
3.25972e-05
5.26409e-05
7.80504e-05
0.000112248
0.000140708
0.000155193
0.000166616
0.000184125
0.000242827
0.000272007
0.000277862
0.000277646
0.000270478
0.000234881
0.000160521
4.9824e-05
-5.25131e-05
-4.79181e-05
7.76735e-06
1.09546e-05
2.35999e-05
4.90242e-05
7.74515e-05
0.000111212
0.000140458
0.000157962
0.00017399
0.000216589
0.000266411
0.000283249
0.000262008
0.000223037
0.000177988
0.000118174
3.32135e-05
-6.403e-05
-0.000140334
-0.000130875
8.37873e-06
1.25272e-05
2.1566e-05
4.31444e-05
7.51196e-05
0.00011209
0.000142997
0.000162629
0.000182741
0.000215576
0.000248699
0.000243302
0.000201252
0.000149672
0.000110242
7.55717e-05
2.67078e-05
-3.7954e-05
-9.38771e-05
-9.1189e-05
7.42213e-06
1.78122e-05
2.66136e-05
3.44105e-05
6.60917e-05
0.000111441
0.000145854
0.000162254
0.000175511
0.000200461
0.000222207
0.000206484
0.000157363
0.000107201
7.58356e-05
5.45285e-05
1.79505e-05
-4.32788e-05
-0.000102878
-0.000110057
7.32282e-06
1.68216e-05
2.96145e-05
3.36665e-05
5.49216e-05
0.000102419
0.000143504
0.000161417
0.000167589
0.000179995
0.000191214
0.000169541
0.000116795
6.59556e-05
3.85919e-05
2.62649e-05
2.3535e-06
-4.61408e-05
-9.84779e-05
-0.00010938
7.95881e-06
1.47894e-05
3.01108e-05
3.98146e-05
4.88156e-05
8.32202e-05
0.000129368
0.000154539
0.000159081
0.0001601
0.000157125
0.000128877
7.45145e-05
2.50212e-05
3.63669e-06
3.78723e-06
-1.99385e-06
-3.29724e-05
-7.78432e-05
-9.81185e-05
7.88968e-06
1.35457e-05
2.605e-05
4.0178e-05
4.99952e-05
6.91014e-05
0.000102568
0.000132924
0.000144927
0.000143809
0.000129166
9.01887e-05
3.25043e-05
-1.48859e-05
-2.60934e-05
-8.30393e-06
4.31873e-06
-1.56284e-05
-6.05147e-05
-9.42803e-05
6.62689e-06
1.26815e-05
2.19659e-05
3.3808e-05
4.88406e-05
6.37446e-05
7.83593e-05
9.64323e-05
0.000115633
0.000125327
0.000112248
6.51641e-05
-2.11791e-06
-5.27058e-05
-5.81561e-05
-2.56167e-05
5.70249e-06
-1.31467e-06
-4.61443e-05
-9.3357e-05
4.11145e-06
1.06026e-05
1.93074e-05
2.55651e-05
3.90829e-05
5.71124e-05
6.34888e-05
6.24327e-05
7.19252e-05
9.24886e-05
9.65829e-05
5.68315e-05
-1.83135e-05
-8.2973e-05
-9.67861e-05
-5.9244e-05
-9.78049e-06
4.88802e-06
-2.90239e-05
-8.28567e-05
9.13301e-07
6.43086e-06
1.55571e-05
1.81399e-05
2.37833e-05
4.27989e-05
5.25744e-05
3.94997e-05
3.00171e-05
4.52196e-05
6.63299e-05
5.02703e-05
-1.6472e-05
-9.54311e-05
-0.000131568
-0.000104513
-4.42087e-05
-3.99706e-06
-1.49884e-05
-6.52036e-05
-2.99789e-06
4.48812e-07
8.96977e-06
1.11674e-05
9.07315e-06
2.0897e-05
3.53283e-05
2.52421e-05
9.14123e-07
-1.51398e-06
2.09984e-05
2.88911e-05
-1.24386e-05
-8.81653e-05
-0.000145613
-0.000145245
-9.4142e-05
-3.78803e-05
-2.15327e-05
-5.30859e-05
-7.89031e-06
-6.65535e-06
-8.46591e-07
2.30293e-06
-3.58225e-06
-1.67605e-06
1.10373e-05
8.55431e-06
-1.65062e-05
-3.58814e-05
-2.69022e-05
-9.11676e-06
-2.25363e-05
-7.69422e-05
-0.000139743
-0.000166576
-0.000141933
-9.02012e-05
-5.4159e-05
-5.96432e-05
-1.43364e-05
-1.46395e-05
-1.22737e-05
-9.4235e-06
-1.57194e-05
-2.17889e-05
-1.64791e-05
-1.41184e-05
-3.19098e-05
-5.74372e-05
-6.46172e-05
-5.27207e-05
-4.94735e-05
-7.83884e-05
-0.000129196
-0.000168995
-0.000171773
-0.000141033
-0.000104332
-9.02835e-05
-2.23826e-05
-2.35583e-05
-2.44379e-05
-2.3878e-05
-2.93794e-05
-3.89904e-05
-4.1482e-05
-4.05227e-05
-5.12184e-05
-7.36803e-05
-9.07273e-05
-9.0518e-05
-8.54436e-05
-9.62926e-05
-0.000128683
-0.00016557
-0.000184691
-0.000176899
-0.000153358
-0.000134858
-3.18751e-05
-3.36599e-05
-3.68523e-05
-3.91865e-05
-4.46433e-05
-5.5066e-05
-6.32075e-05
-6.66302e-05
-7.39695e-05
-9.08009e-05
-0.000109369
-0.000118709
-0.000119318
-0.000123722
-0.000141441
-0.000168531
-0.000191281
-0.000198613
-0.000190702
-0.00017841
-4.23769e-05
-4.4659e-05
-4.93393e-05
-5.43981e-05
-6.09315e-05
-7.12938e-05
-8.20871e-05
-8.96022e-05
-9.72521e-05
-0.000110254
-0.000126867
-0.000140217
-0.000146983
-0.000152062
-0.000162759
-0.000180864
-0.000200429
-0.000213591
-0.000216822
-0.000213182
-5.33255e-05
-5.61358e-05
-6.1801e-05
-6.88582e-05
-7.68874e-05
-8.73352e-05
-9.9203e-05
-0.000109627
-0.00011901
-0.000130481
-0.000144798
-0.000158779
-0.000169326
-0.000177111
-0.000186008
-0.000198748
-0.000214095
-0.00022781
-0.000236378
-0.000239558
-6.40439e-05
-6.73526e-05
-7.36989e-05
-8.20477e-05
-9.15082e-05
-0.000102457
-0.000114777
-0.000126886
-0.000138028
-0.000149444
-0.000162311
-0.000175809
-0.000187967
-0.000198123
-0.000207656
-0.000218382
-0.000230649
-0.000242965
-0.000253236
-0.000260351
-7.38801e-05
-7.74802e-05
-8.42195e-05
-9.32544e-05
-0.000103691
-0.000115214
-0.000127736
-0.000140591
-0.000153034
-0.000165158
-0.000177553
-0.000190278
-0.000202649
-0.000214031
-0.00022453
-0.000234812
-0.000245394
-0.000256115
-0.00026624
-0.000275008
-8.28773e-05
-8.71652e-05
-9.46702e-05
-0.000104582
-0.000116113
-0.000128675
-0.000141939
-0.000155498
-0.000168872
-0.000181863
-0.000194613
-0.000207256
-0.000219658
-0.000231543
-0.000242792
-0.000253544
-0.000264014
-0.000274251
-0.000284067
-0.000293179
0.000123684
0.000398526
0.000642337
0.000763241
0.000741912
0.000623238
0.000463938
0.000302939
0.000163921
5.73615e-05
-1.84011e-05
-7.95828e-05
-0.000142078
-0.000191567
-0.000204689
-0.000193575
-0.000197297
-0.000235327
-0.000286806
-0.000323422
-0.000345064
-0.000372135
-0.000421487
-0.000483689
-0.000525625
-0.000537274
-0.000548506
-0.000583757
-0.000627722
-0.000649845
-0.000659858
-0.000698296
-0.000758623
-0.000797869
-0.000819022
-0.000850878
-0.000887032
-0.00091348
-0.000940801
-0.000979261
-0.00102304
-0.00106258
-0.00109585
-0.00112803
-0.00116263
-0.00119959
-0.00124018
-0.00128272
-0.0013209
-0.00135538
-0.00139434
-0.00143951
-0.001484
-0.00152449
-0.00156462
-0.00160888
-0.001657
-0.00170532
-0.00175029
-0.00179417
-0.00184274
-0.00189885
-0.00195686
-0.00200916
-0.00205513
-0.00210355
-0.00216547
-0.00224408
-0.00233276
-0.00241814
-0.00248996
-0.00254311
-0.00258089
-0.00260808
-0.00263316
-0.00265989
-0.00268973
-0.00272363
-0.00276087
-0.00280165
-0.00284449
-0.00288936
-0.00293583
-0.00298372
-0.00303307
-0.00308331
-0.00313497
-0.0031875
-0.003241
-0.00329582
-0.00335097
-0.00340764
-0.00346458
-0.00352202
-0.00358035
-0.00363734
-0.00369406
-0.00374912
-0.00379777
-0.00384172
4.72709e-06
0.000236118
0.000470506
0.000619793
0.000639575
0.000550433
0.000413401
0.000279634
0.00016616
7.02424e-05
-1.0658e-05
-8.25422e-05
-0.000151171
-0.000201498
-0.000215319
-0.000206377
-0.000209189
-0.000242036
-0.000289596
-0.000325711
-0.000347308
-0.000374135
-0.000424185
-0.000487815
-0.000530776
-0.000541823
-0.000551403
-0.000586003
-0.000630797
-0.000653447
-0.00066252
-0.000700137
-0.000761038
-0.000800529
-0.000820806
-0.000852463
-0.000889291
-0.000915776
-0.000942553
-0.000980764
-0.00102462
-0.0010643
-0.00109759
-0.00112963
-0.00116399
-0.00120081
-0.00124147
-0.00128425
-0.00132245
-0.00135662
-0.00139537
-0.0014407
-0.00148535
-0.00152574
-0.00156567
-0.00160987
-0.00165805
-0.0017064
-0.00175134
-0.00179516
-0.00184357
-0.0018995
-0.00195743
-0.00200981
-0.00205618
-0.00210483
-0.00216614
-0.00224336
-0.00233038
-0.00241441
-0.00248578
-0.00253949
-0.00257835
-0.00260681
-0.00263304
-0.00266015
-0.00269015
-0.00272403
-0.00276129
-0.00280193
-0.00284466
-0.00288944
-0.00293586
-0.00298372
-0.00303307
-0.00308329
-0.00313496
-0.00318748
-0.00324099
-0.00329581
-0.00335097
-0.00340764
-0.0034646
-0.003522
-0.00358041
-0.00363731
-0.00369413
-0.00374912
-0.00379801
-0.0038423
7.53879e-06
0.000192821
0.000396569
0.000539119
0.000572029
0.00050224
0.000382445
0.000269403
0.000182143
0.000103228
1.92591e-05
-6.57115e-05
-0.000143314
-0.000197148
-0.000214821
-0.000211628
-0.000217198
-0.000246254
-0.000287754
-0.000320733
-0.000341094
-0.0003669
-0.000417727
-0.00048405
-0.000529294
-0.0005408
-0.000549415
-0.000583578
-0.000629734
-0.000653611
-0.000661966
-0.00069882
-0.000760366
-0.000799917
-0.000818952
-0.000850239
-0.000887943
-0.000915036
-0.000942307
-0.000981231
-0.00102485
-0.00106355
-0.00109671
-0.00112906
-0.00116314
-0.0012
-0.0012417
-0.0012849
-0.00132215
-0.00135588
-0.00139562
-0.00144145
-0.00148506
-0.00152489
-0.0015661
-0.0016114
-0.00165837
-0.00170482
-0.00175026
-0.00179665
-0.00184631
-0.0018999
-0.00195412
-0.00200589
-0.00205553
-0.00210852
-0.00217108
-0.00224401
-0.00232261
-0.00239802
-0.00246376
-0.00251584
-0.00255698
-0.00259134
-0.00261958
-0.00265279
-0.00268568
-0.00272139
-0.00275977
-0.00280104
-0.00284418
-0.0028891
-0.00293568
-0.00298364
-0.00303302
-0.00308323
-0.00313495
-0.00318744
-0.00324098
-0.0032958
-0.00335096
-0.00340764
-0.0034646
-0.003522
-0.00358044
-0.00363729
-0.00369419
-0.00374918
-0.00379821
-0.00384266
-3.3175e-05
0.000120145
0.000295861
0.000424537
0.000460578
0.00040686
0.000305598
0.000209782
0.00014387
8.72835e-05
1.52255e-05
-6.86548e-05
-0.000147919
-0.000203373
-0.000223669
-0.000224584
-0.00023518
-0.000266719
-0.000304794
-0.000331503
-0.000347791
-0.000371349
-0.000420785
-0.000488139
-0.000536254
-0.000550133
-0.000559159
-0.000591977
-0.000637212
-0.000661062
-0.000668002
-0.000702479
-0.000763781
-0.000804758
-0.000823961
-0.000854598
-0.000892601
-0.000919882
-0.000946206
-0.000984297
-0.00102804
-0.00106719
-0.00110045
-0.00113244
-0.00116606
-0.00120279
-0.00124465
-0.00128798
-0.00132516
-0.00135868
-0.00139816
-0.00144386
-0.00148759
-0.00152761
-0.00156867
-0.00161343
-0.00166008
-0.00170692
-0.00175294
-0.00179921
-0.00184771
-0.0019002
-0.00195469
-0.00200792
-0.00205889
-0.00211171
-0.00217162
-0.00224041
-0.00231547
-0.00238921
-0.00245559
-0.0025103
-0.00255454
-0.00259047
-0.00262443
-0.00265417
-0.00268585
-0.00272169
-0.00275999
-0.0028012
-0.00284446
-0.00288936
-0.00293565
-0.00298357
-0.00303295
-0.00308316
-0.00313491
-0.00318739
-0.00324096
-0.00329578
-0.00335094
-0.00340763
-0.0034646
-0.00352199
-0.00358047
-0.0036373
-0.00369424
-0.00374927
-0.00379834
-0.003843
-4.96586e-05
7.59662e-05
0.000224311
0.00033706
0.000371512
0.000327151
0.000240045
0.000158138
0.000108186
7.14277e-05
1.58391e-05
-6.08775e-05
-0.000140095
-0.000198511
-0.000221333
-0.000223499
-0.000238252
-0.000277826
-0.000319662
-0.000340936
-0.000349781
-0.000369418
-0.000415323
-0.000479875
-0.00052949
-0.000547244
-0.000559062
-0.000592857
-0.000638261
-0.000662424
-0.000668032
-0.000699254
-0.000759849
-0.000803373
-0.000823897
-0.000854106
-0.000892174
-0.000919381
-0.000944882
-0.000982673
-0.00102702
-0.00106691
-0.00110036
-0.00113178
-0.00116469
-0.00120148
-0.00124412
-0.00128791
-0.00132472
-0.00135781
-0.00139759
-0.00144373
-0.00148718
-0.00152672
-0.00156816
-0.00161368
-0.00166012
-0.00170586
-0.00175152
-0.00179883
-0.00184842
-0.00190046
-0.00195305
-0.00200489
-0.00205652
-0.0021111
-0.00217173
-0.00223865
-0.00230896
-0.00237664
-0.00243788
-0.00248964
-0.00253381
-0.00257179
-0.00260759
-0.00264183
-0.00267944
-0.00271759
-0.00275733
-0.00279958
-0.00284266
-0.00288859
-0.00293526
-0.00298333
-0.0030328
-0.00308303
-0.00313484
-0.00318732
-0.00324091
-0.00329574
-0.00335091
-0.00340762
-0.0034646
-0.00352199
-0.0035805
-0.00363732
-0.00369429
-0.00374937
-0.00379847
-0.00384329
-6.20013e-05
3.46605e-05
0.000158227
0.000257059
0.000288986
0.000249002
0.000169812
9.74362e-05
5.96813e-05
4.04647e-05
3.18552e-06
-6.34063e-05
-0.000141835
-0.000202838
-0.000226419
-0.000226372
-0.000240659
-0.000286918
-0.000338028
-0.000360453
-0.000362295
-0.000376191
-0.000419307
-0.000480954
-0.00053051
-0.000551104
-0.0005646
-0.000600297
-0.000649019
-0.000673697
-0.000675179
-0.000701263
-0.000760334
-0.000805792
-0.000828025
-0.000859134
-0.00089826
-0.000925151
-0.000948498
-0.00098458
-0.0010291
-0.00107042
-0.00110497
-0.00113591
-0.00116749
-0.00120377
-0.00124692
-0.00129123
-0.00132807
-0.00136082
-0.0014002
-0.00144619
-0.00148983
-0.00152962
-0.00157096
-0.001616
-0.00166199
-0.00170788
-0.00175413
-0.00180158
-0.00185029
-0.00190101
-0.00195315
-0.00200595
-0.00205889
-0.00211353
-0.00217213
-0.00223523
-0.00230154
-0.0023669
-0.00242829
-0.00248233
-0.00252979
-0.00257105
-0.00260895
-0.00264488
-0.00268094
-0.00271868
-0.00275802
-0.00279981
-0.0028429
-0.00288843
-0.00293505
-0.00298312
-0.00303264
-0.00308288
-0.00313474
-0.00318722
-0.00324085
-0.0032957
-0.00335087
-0.00340761
-0.00346459
-0.00352199
-0.00358052
-0.00363735
-0.00369433
-0.00374947
-0.0037986
-0.00384352
-8.23335e-05
-1.21261e-05
9.25801e-05
0.000183335
0.000214713
0.000177583
0.000102422
3.48429e-05
5.81916e-06
3.20942e-06
-1.44996e-05
-6.96352e-05
-0.000147894
-0.000212867
-0.000237897
-0.000235393
-0.000245767
-0.000292716
-0.000352121
-0.000382328
-0.000381505
-0.000385653
-0.000422083
-0.000482151
-0.000532057
-0.00055309
-0.000564853
-0.000599327
-0.000653457
-0.000684431
-0.000682823
-0.000701546
-0.000758961
-0.000806389
-0.000828767
-0.000859994
-0.000901395
-0.000929394
-0.00095057
-0.000984196
-0.00102833
-0.0010707
-0.00110675
-0.00113841
-0.00116872
-0.00120316
-0.00124642
-0.00129224
-0.00132956
-0.00136136
-0.00140011
-0.00144649
-0.00149046
-0.00152991
-0.00157097
-0.00161626
-0.00166243
-0.00170793
-0.00175365
-0.00180109
-0.00185014
-0.00190088
-0.00195243
-0.00200439
-0.00205686
-0.0021114
-0.00216952
-0.00223108
-0.00229465
-0.00235646
-0.00241441
-0.002466
-0.00251246
-0.00255401
-0.00259376
-0.00263239
-0.00267178
-0.00271232
-0.00275375
-0.00279712
-0.00284127
-0.00288743
-0.00293443
-0.00298269
-0.00303235
-0.00308265
-0.00313458
-0.0031871
-0.00324075
-0.00329565
-0.00335081
-0.00340758
-0.00346458
-0.00352199
-0.00358055
-0.00363738
-0.00369438
-0.00374957
-0.00379871
-0.00384371
-0.000104665
-5.94284e-05
2.95493e-05
0.000116424
0.000150849
0.000118523
4.65272e-05
-2.12824e-05
-4.93871e-05
-4.23033e-05
-4.29851e-05
-8.40047e-05
-0.000157771
-0.000226195
-0.000255904
-0.000252862
-0.000255077
-0.000294213
-0.000357069
-0.000398711
-0.000402564
-0.000398448
-0.000423992
-0.000481926
-0.000535824
-0.000559708
-0.000569645
-0.000598516
-0.000653608
-0.000695042
-0.000695641
-0.000704155
-0.000757213
-0.000808768
-0.000831299
-0.000859886
-0.000903459
-0.000935259
-0.000955835
-0.000986005
-0.00102835
-0.00107112
-0.00110842
-0.00114191
-0.00117284
-0.00120508
-0.00124619
-0.00129326
-0.00133285
-0.00136438
-0.00140144
-0.00144745
-0.00149222
-0.00153208
-0.00157286
-0.00161772
-0.0016636
-0.00170906
-0.00175502
-0.00180264
-0.00185133
-0.00190118
-0.001952
-0.00200397
-0.00205693
-0.00211144
-0.00216822
-0.00222709
-0.00228748
-0.00234686
-0.00240412
-0.00245684
-0.00250577
-0.00255029
-0.00259241
-0.00263249
-0.00267227
-0.00271268
-0.00275382
-0.00279689
-0.00284086
-0.00288691
-0.00293395
-0.00298228
-0.00303203
-0.00308239
-0.00313439
-0.00318695
-0.00324062
-0.00329557
-0.00335074
-0.00340755
-0.00346456
-0.00352198
-0.00358057
-0.00363741
-0.00369443
-0.00374966
-0.00379881
-0.00384386
-0.000116614
-0.000100664
-3.45516e-05
4.57503e-05
8.89329e-05
6.83083e-05
1.6648e-06
-6.87978e-05
-0.000103853
-9.62406e-05
-8.29598e-05
-0.00010456
-0.00016553
-0.000234508
-0.000273309
-0.00027546
-0.000271353
-0.000297561
-0.000356654
-0.000408932
-0.00042459
-0.000419609
-0.000433428
-0.000483704
-0.000540524
-0.000569126
-0.000578576
-0.000599939
-0.000649323
-0.000700122
-0.000711452
-0.000712513
-0.000756134
-0.00081151
-0.000836761
-0.000860575
-0.000903306
-0.000940027
-0.000962718
-0.00098998
-0.00102939
-0.00107174
-0.00110951
-0.00114443
-0.00117764
-0.0012091
-0.00124642
-0.00129284
-0.00133564
-0.00136829
-0.00140317
-0.00144805
-0.00149385
-0.00153423
-0.00157432
-0.00161873
-0.00166482
-0.00171032
-0.00175586
-0.00180303
-0.00185148
-0.00190119
-0.00195176
-0.00200328
-0.00205561
-0.00210928
-0.00216493
-0.00222225
-0.00228071
-0.00233801
-0.00239334
-0.0024446
-0.00249275
-0.00253724
-0.0025802
-0.00262194
-0.00266381
-0.00270638
-0.00274939
-0.00279395
-0.00283895
-0.00288563
-0.00293306
-0.00298164
-0.00303157
-0.00308203
-0.00313412
-0.00318675
-0.00324046
-0.00329546
-0.00335065
-0.0034075
-0.00346453
-0.00352197
-0.00358059
-0.00363744
-0.00369448
-0.00374974
-0.0037989
-0.00384399
-0.000116348
-0.000131965
-9.63119e-05
-2.91692e-05
2.27853e-05
2.1007e-05
-3.23563e-05
-0.00010214
-0.000147312
-0.00014866
-0.00012994
-0.000133347
-0.000176716
-0.000241744
-0.000290459
-0.000302927
-0.000297465
-0.000310405
-0.000358259
-0.000414551
-0.000443023
-0.000443898
-0.000449092
-0.000486169
-0.000541378
-0.000577542
-0.000590969
-0.000607215
-0.000646586
-0.000699519
-0.00072544
-0.000726619
-0.000756863
-0.000811467
-0.000843259
-0.000864047
-0.000902652
-0.000943137
-0.000970138
-0.000995972
-0.0010316
-0.00107254
-0.00111065
-0.00114629
-0.00118177
-0.00121435
-0.00124822
-0.00129174
-0.00133714
-0.00137275
-0.00140595
-0.00144831
-0.00149457
-0.00153631
-0.00157623
-0.00161981
-0.00166555
-0.001711
-0.00175645
-0.00180353
-0.00185177
-0.00190097
-0.00195084
-0.00200182
-0.00205382
-0.00210705
-0.00216165
-0.00221718
-0.00227345
-0.00232878
-0.00238304
-0.00243444
-0.00248384
-0.00253026
-0.00257521
-0.00261857
-0.00266145
-0.00270456
-0.00274783
-0.00279255
-0.00283773
-0.00288459
-0.00293222
-0.00298096
-0.00303104
-0.00308161
-0.0031338
-0.00318651
-0.00324027
-0.00329533
-0.00335055
-0.00340742
-0.0034645
-0.00352194
-0.0035806
-0.00363747
-0.00369452
-0.00374981
-0.00379897
-0.00384409
-0.000106993
-0.000146491
-0.000143406
-9.93616e-05
-4.77948e-05
-3.08236e-05
-6.35048e-05
-0.000125137
-0.000178192
-0.000194905
-0.000181722
-0.00017355
-0.000197769
-0.000251053
-0.000303258
-0.00032715
-0.00032666
-0.000330975
-0.000364074
-0.000416099
-0.000454441
-0.000466485
-0.000470812
-0.00049523
-0.000542873
-0.00058468
-0.000604665
-0.000618991
-0.000648429
-0.000696313
-0.000734007
-0.000743731
-0.000762998
-0.000810587
-0.000849192
-0.000870842
-0.000903457
-0.000944494
-0.000976328
-0.00100294
-0.00103531
-0.00107389
-0.00111214
-0.00114815
-0.00118471
-0.00121936
-0.00125202
-0.00129161
-0.00133713
-0.00137621
-0.00140965
-0.00144938
-0.00149505
-0.00153804
-0.00157806
-0.00162074
-0.00166622
-0.00171193
-0.0017573
-0.00180388
-0.00185162
-0.00190045
-0.00195
-0.00200061
-0.0020521
-0.00210453
-0.00215805
-0.00221226
-0.00226713
-0.00232117
-0.00237441
-0.00242517
-0.00247432
-0.00252092
-0.00256646
-0.00261081
-0.00265495
-0.00269941
-0.00274392
-0.00278968
-0.00283562
-0.00288303
-0.00293105
-0.00298007
-0.00303037
-0.00308109
-0.0031334
-0.0031862
-0.00324003
-0.00329516
-0.00335042
-0.00340733
-0.00346445
-0.00352192
-0.0035806
-0.00363749
-0.00369455
-0.00374986
-0.00379904
-0.00384417
-9.90266e-05
-0.000146456
-0.00016965
-0.000154298
-0.0001162
-9.03877e-05
-0.00010238
-0.000147705
-0.000199619
-0.00022911
-0.000228388
-0.000218542
-0.000227943
-0.000265292
-0.000313013
-0.000345208
-0.000354692
-0.000358449
-0.00037959
-0.00042159
-0.000462905
-0.000485128
-0.000493778
-0.00051015
-0.000547188
-0.000589509
-0.00061652
-0.000633081
-0.000656507
-0.000695876
-0.000737416
-0.000758266
-0.000773796
-0.000811369
-0.000852875
-0.000878885
-0.000907118
-0.000945669
-0.000980792
-0.00100962
-0.00104036
-0.00107648
-0.00111432
-0.00115055
-0.00118695
-0.00122312
-0.00125672
-0.00129342
-0.00133686
-0.00137843
-0.00141371
-0.00145138
-0.00149534
-0.00153933
-0.00158031
-0.00162241
-0.00166712
-0.00171265
-0.00175794
-0.00180429
-0.0018518
-0.00190036
-0.00194947
-0.00199945
-0.00205022
-0.00210183
-0.00215429
-0.00220714
-0.00226047
-0.00231306
-0.00236526
-0.0024156
-0.00246506
-0.00251253
-0.00255929
-0.00260492
-0.00265019
-0.00269558
-0.00274084
-0.0027872
-0.00283364
-0.00288146
-0.00292981
-0.00297909
-0.0030296
-0.00308049
-0.00313293
-0.00318585
-0.00323975
-0.00329495
-0.00335027
-0.00340722
-0.00346438
-0.00352188
-0.00358059
-0.00363751
-0.00369458
-0.00374991
-0.00379909
-0.00384424
-0.000108148
-0.000146926
-0.000181246
-0.0001903
-0.000173428
-0.000151337
-0.000149137
-0.000175164
-0.000216937
-0.000251745
-0.000264428
-0.000261859
-0.000264703
-0.000287321
-0.000325218
-0.000360135
-0.000379293
-0.000387557
-0.000401579
-0.00043198
-0.000469837
-0.000498484
-0.000514289
-0.000529293
-0.000557461
-0.000595179
-0.000625963
-0.000646747
-0.000668423
-0.000700267
-0.00073919
-0.000768277
-0.000786844
-0.000816404
-0.000855765
-0.000886374
-0.000913486
-0.00094834
-0.000984251
-0.00101542
-0.00104607
-0.00108021
-0.001117
-0.00115342
-0.00118949
-0.00122617
-0.00126135
-0.00129681
-0.00133732
-0.00137955
-0.00141744
-0.00145472
-0.00149666
-0.00154054
-0.00158234
-0.00162416
-0.00166817
-0.00171361
-0.00175898
-0.00180499
-0.00185186
-0.00189976
-0.00194821
-0.00199755
-0.00204764
-0.00209847
-0.00215004
-0.00220189
-0.00225421
-0.00230593
-0.00235752
-0.0024076
-0.00245712
-0.00250497
-0.00255231
-0.0025987
-0.00264481
-0.00269107
-0.00273715
-0.00278424
-0.00283129
-0.0028796
-0.00292835
-0.00297794
-0.00302871
-0.00307979
-0.00313237
-0.00318542
-0.00323942
-0.0032947
-0.00335009
-0.00340709
-0.0034643
-0.00352183
-0.00358057
-0.00363751
-0.0036946
-0.00374994
-0.00379913
-0.00384429
-0.000136202
-0.000159167
-0.000190166
-0.000211394
-0.000213444
-0.00020276
-0.00019687
-0.000209111
-0.000238146
-0.000270593
-0.000291857
-0.000298775
-0.000302188
-0.000315699
-0.000342937
-0.000374688
-0.000398909
-0.000413058
-0.000426149
-0.000448737
-0.000480217
-0.000510181
-0.000531898
-0.000549152
-0.000571658
-0.000602762
-0.000634178
-0.000659374
-0.000681937
-0.000709002
-0.000742999
-0.000775256
-0.000798967
-0.000824891
-0.000859626
-0.000892486
-0.000920832
-0.000952793
-0.000987705
-0.00102057
-0.00105207
-0.00108508
-0.00112048
-0.00115664
-0.00119247
-0.00122905
-0.00126551
-0.00130132
-0.00133968
-0.00138091
-0.00142041
-0.00145821
-0.00149858
-0.00154173
-0.00158425
-0.00162627
-0.0016695
-0.00171424
-0.00175923
-0.00180484
-0.00185127
-0.00189882
-0.00194699
-0.00199593
-0.00204549
-0.00209565
-0.00214639
-0.00219729
-0.0022486
-0.00229938
-0.00235024
-0.00239989
-0.00244937
-0.00249753
-0.00254547
-0.00259263
-0.00263958
-0.00268667
-0.0027335
-0.00278125
-0.00282887
-0.00287765
-0.00292679
-0.0029767
-0.00302772
-0.00307902
-0.00313177
-0.00318495
-0.00323905
-0.00329443
-0.00334988
-0.00340694
-0.0034642
-0.00352176
-0.00358054
-0.00363751
-0.00369461
-0.00374997
-0.00379916
-0.00384433
-0.000173829
-0.000183897
-0.00020541
-0.000227529
-0.000240277
-0.000241936
-0.000240614
-0.000247047
-0.0002654
-0.000290682
-0.000313198
-0.000326958
-0.00033503
-0.00034597
-0.000365644
-0.000391642
-0.00041618
-0.000434817
-0.000450271
-0.000469
-0.000494284
-0.000522143
-0.000546591
-0.0005668
-0.000587648
-0.000613947
-0.000643612
-0.00067082
-0.000694812
-0.000719925
-0.000749709
-0.000781387
-0.00080896
-0.000834861
-0.00086561
-0.000898279
-0.0009283
-0.000958873
-0.00099212
-0.00102545
-0.00105775
-0.0010905
-0.001125
-0.00116068
-0.00119635
-0.00123251
-0.00126925
-0.00130561
-0.00134291
-0.00138277
-0.00142291
-0.00146169
-0.00150125
-0.00154313
-0.00158548
-0.00162761
-0.00167045
-0.00171482
-0.00175983
-0.00180546
-0.00185162
-0.0018987
-0.00194627
-0.00199452
-0.0020433
-0.00209264
-0.00214254
-0.00219259
-0.00224311
-0.00229321
-0.00234357
-0.00239297
-0.00244245
-0.00249085
-0.00253921
-0.00258694
-0.00263452
-0.00268227
-0.00272975
-0.00277811
-0.00282627
-0.00287551
-0.00292506
-0.0029753
-0.0030266
-0.00307812
-0.00313106
-0.0031844
-0.00323862
-0.00329409
-0.00334963
-0.00340676
-0.00346407
-0.00352168
-0.00358049
-0.00363749
-0.0036946
-0.00374997
-0.00379918
-0.00384435
-0.000210183
-0.000214548
-0.000227866
-0.000245769
-0.000261557
-0.000271119
-0.000275981
-0.000282033
-0.000294365
-0.000313017
-0.000333409
-0.000350431
-0.000362955
-0.000374724
-0.000390368
-0.000410963
-0.000433505
-0.000454041
-0.000471662
-0.000489583
-0.00051124
-0.000536021
-0.000560411
-0.000582358
-0.000603634
-0.000627709
-0.000654638
-0.000681177
-0.000706263
-0.000731629
-0.000759068
-0.000788637
-0.000817469
-0.000844473
-0.000873224
-0.00090457
-0.000935339
-0.000965691
-0.000997723
-0.00103067
-0.0010633
-0.00109615
-0.00113003
-0.00116494
-0.00120031
-0.00123627
-0.00127293
-0.00130963
-0.00134659
-0.00138519
-0.00142488
-0.00146424
-0.00150376
-0.00154496
-0.00158724
-0.00162975
-0.00167254
-0.00171641
-0.0017609
-0.00180604
-0.00185163
-0.00189811
-0.00194516
-0.00199294
-0.00204123
-0.00209002
-0.00213932
-0.00218874
-0.00223862
-0.00228813
-0.00233802
-0.00238712
-0.00243651
-0.00248502
-0.00253369
-0.00258185
-0.00262997
-0.00267828
-0.00272632
-0.00277521
-0.00282386
-0.00287352
-0.00292344
-0.00297399
-0.00302554
-0.00307729
-0.00313039
-0.00318388
-0.00323822
-0.00329379
-0.0033494
-0.00340659
-0.00346396
-0.00352161
-0.00358044
-0.00363747
-0.0036946
-0.00374998
-0.00379919
-0.00384438
-0.000240729
-0.000244429
-0.00025342
-0.000267009
-0.000281786
-0.000294324
-0.000303712
-0.000312097
-0.00032271
-0.000337174
-0.000354291
-0.00037121
-0.000386078
-0.00039958
-0.00041418
-0.000431813
-0.000451857
-0.000471973
-0.000490815
-0.000509194
-0.000529005
-0.000551089
-0.000574264
-0.000596941
-0.000618976
-0.000641655
-0.00066619
-0.000692136
-0.000717908
-0.000743047
-0.000769072
-0.000797141
-0.000825751
-0.000853419
-0.000881683
-0.000911756
-0.000942233
-0.000972572
-0.0010038
-0.00103599
-0.00106859
-0.00110157
-0.00113504
-0.00116926
-0.00120424
-0.00123986
-0.00127609
-0.00131281
-0.00134988
-0.00138797
-0.00142723
-0.0014669
-0.00150661
-0.00154723
-0.00158881
-0.00163099
-0.00167346
-0.00171684
-0.00176092
-0.00180583
-0.00185119
-0.00189735
-0.00194401
-0.00199132
-0.00203906
-0.00208727
-0.00213595
-0.00218475
-0.00223404
-0.00228305
-0.00233255
-0.00238143
-0.00243075
-0.00247937
-0.00252828
-0.0025768
-0.00262536
-0.00267415
-0.0027227
-0.00277208
-0.00282119
-0.00287127
-0.00292156
-0.00297244
-0.00302428
-0.00307626
-0.00312956
-0.00318322
-0.0032377
-0.00329338
-0.00334909
-0.00340636
-0.00346379
-0.00352149
-0.00358036
-0.00363742
-0.00369457
-0.00374996
-0.00379918
-0.00384437
-0.000265425
-0.000270806
-0.000278535
-0.000289246
-0.000301926
-0.000314744
-0.000326378
-0.000336955
-0.00034786
-0.000360531
-0.000375273
-0.000391094
-0.000406644
-0.000421464
-0.000436403
-0.000452664
-0.000470633
-0.000489658
-0.000508735
-0.000527545
-0.000546805
-0.000567356
-0.000589163
-0.000611456
-0.000633662
-0.000656184
-0.000679855
-0.000704581
-0.000729624
-0.000754919
-0.000780851
-0.000807629
-0.00083522
-0.000863224
-0.000891493
-0.000920543
-0.000950467
-0.000980788
-0.00101155
-0.00104315
-0.00107551
-0.00110826
-0.00114143
-0.00117537
-0.00121013
-0.00124551
-0.00128149
-0.00131813
-0.00135523
-0.00139294
-0.00143149
-0.0014708
-0.00151044
-0.00155076
-0.0015919
-0.0016339
-0.00167632
-0.0017195
-0.00176325
-0.0018078
-0.00185276
-0.00189846
-0.00194461
-0.00199141
-0.00203866
-0.00208634
-0.00213451
-0.0021828
-0.0022316
-0.00228015
-0.00232928
-0.00237787
-0.00242703
-0.0024756
-0.00252458
-0.00257328
-0.00262208
-0.00267118
-0.00272005
-0.00276977
-0.0028192
-0.00286959
-0.00292016
-0.00297128
-0.00302333
-0.00307549
-0.00312895
-0.00318274
-0.00323732
-0.00329309
-0.00334888
-0.0034062
-0.00346368
-0.00352141
-0.00358032
-0.0036374
-0.00369456
-0.00374996
-0.00379919
-0.00384439
-0.000282645
-0.000290079
-0.000298235
-0.000307772
-0.000318736
-0.000330578
-0.000342581
-0.000354388
-0.000366241
-0.000378719
-0.000392246
-0.000406757
-0.000421796
-0.000436983
-0.000452348
-0.0004683
-0.000485242
-0.000503157
-0.00052166
-0.000540444
-0.000559583
-0.000579438
-0.000600231
-0.000621796
-0.000643818
-0.000666206
-0.000689161
-0.000712951
-0.000737573
-0.0007627
-0.000788158
-0.000814287
-0.000841371
-0.000869054
-0.000897048
-0.000925693
-0.000955151
-0.00098516
-0.00101573
-0.00104704
-0.00107897
-0.00111146
-0.00114458
-0.00117838
-0.00121279
-0.00124781
-0.00128349
-0.00131989
-0.00135685
-0.00139442
-0.0014327
-0.00147181
-0.00151145
-0.00155172
-0.00159261
-0.00163432
-0.00167652
-0.00171946
-0.00176291
-0.00180717
-0.00185189
-0.00189734
-0.00194322
-0.00198974
-0.00203669
-0.00208406
-0.00213187
-0.00217979
-0.00222824
-0.00227649
-0.00232539
-0.00237384
-0.00242295
-0.00247157
-0.00252069
-0.00256959
-0.00261866
-0.00266807
-0.00271727
-0.00276731
-0.00281707
-0.00286777
-0.00291861
-0.00296999
-0.00302226
-0.00307461
-0.00312824
-0.00318216
-0.00323686
-0.00329273
-0.0033486
-0.00340599
-0.00346352
-0.0035213
-0.00358024
-0.00363734
-0.00369452
-0.00374994
-0.00379917
-0.00384437
-0.000301844
-0.000310579
-0.00031969
-0.000329479
-0.000340098
-0.000351461
-0.000363317
-0.000375431
-0.000387747
-0.000400415
-0.000413657
-0.000427592
-0.000442165
-0.000457224
-0.00047269
-0.000488648
-0.000505255
-0.000522589
-0.000540581
-0.000559096
-0.000578079
-0.000597622
-0.00061785
-0.000638787
-0.000660337
-0.000682406
-0.000705045
-0.000728378
-0.000752392
-0.000776988
-0.000802172
-0.000828003
-0.000854474
-0.000881568
-0.00090928
-0.000937606
-0.000966573
-0.000996211
-0.00102647
-0.00105731
-0.00108877
-0.00112094
-0.00115377
-0.00118718
-0.0012212
-0.00125595
-0.00129137
-0.00132746
-0.00136415
-0.0014015
-0.00143947
-0.00147818
-0.00151747
-0.00155745
-0.001598
-0.00163934
-0.00168123
-0.00172387
-0.001767
-0.00181091
-0.00185525
-0.00190032
-0.0019458
-0.00199191
-0.00203845
-0.00208544
-0.00213287
-0.00218032
-0.00222825
-0.002276
-0.00232446
-0.00237255