/*--------------------------------*- C++ -*----------------------------------*\
| =========                 |                                                 |
| \\      /  F ield         | OpenFOAM: The Open Source CFD Toolbox           |
|  \\    /   O peration     | Version:  v2012                                 |
|   \\  /    A nd           | Website:  www.openfoam.com                      |
|    \\/     M anipulation  |                                                 |
\*---------------------------------------------------------------------------*/
FoamFile
{
    version     2.0;
    format      ascii;
    class       surfaceScalarField;
    location    "0.3";
    object      phi;
}
// * * * * * * * * * * * * * * * * * * * * * * * * * * * * * * * * * * * * * //

dimensions      [0 3 -1 0 0 0 0];
oriented        oriented;


internalField   nonuniform List<scalar> 
4660
(
1.99009e-05
-3.47863e-10
1.9901e-05
-3.4708e-09
1.99011e-05
6.57824e-10
1.99006e-05
1.55542e-09
1.99002e-05
1.82203e-09
1.98997e-05
-3.43425e-10
1.98993e-05
-1.0827e-09
1.98992e-05
-7.54374e-10
1.98993e-05
-6.16756e-10
1.98994e-05
-3.22526e-11
1.98996e-05
1.11611e-09
1.98995e-05
1.90207e-09
1.9898e-05
3.18269e-09
1.98948e-05
4.94044e-09
1.98903e-05
7.5437e-09
1.98851e-05
9.28796e-09
1.98796e-05
1.05889e-08
1.98745e-05
1.10532e-08
1.98701e-05
1.06997e-08
9.95378e-09
1.98663e-05
2.16601e-05
-6.02679e-10
2.16581e-05
-1.46483e-09
2.16595e-05
-7.73961e-10
2.166e-05
1.00572e-09
2.16598e-05
2.05186e-09
2.16588e-05
6.16229e-10
2.16582e-05
-4.40945e-10
2.16577e-05
-2.09991e-10
2.1657e-05
-2.08638e-12
2.16558e-05
1.18558e-09
2.16536e-05
3.33843e-09
2.16502e-05
5.30723e-09
2.16458e-05
7.55455e-09
2.16413e-05
9.4287e-09
2.16382e-05
1.06503e-08
2.16364e-05
1.11158e-08
2.16361e-05
1.09242e-08
2.16369e-05
1.02466e-08
2.16383e-05
9.27394e-09
8.26775e-09
2.164e-05
2.35747e-05
-8.54717e-10
2.35728e-05
5.12283e-10
2.35733e-05
-1.31468e-09
2.35745e-05
-2.2197e-10
2.35747e-05
1.84744e-09
2.35737e-05
1.62219e-09
2.35727e-05
5.61664e-10
2.35715e-05
1.06982e-09
2.35699e-05
1.53404e-09
2.3568e-05
3.14201e-09
2.35657e-05
5.56731e-09
2.35636e-05
7.46206e-09
2.35619e-05
9.22044e-09
2.35608e-05
1.05413e-08
2.35602e-05
1.12546e-08
2.35599e-05
1.13636e-08
2.35597e-05
1.11318e-08
2.35597e-05
1.02801e-08
2.35598e-05
9.18757e-09
8.13129e-09
2.35599e-05
2.56581e-05
-4.97605e-10
2.56583e-05
2.53261e-10
2.56567e-05
3.6815e-10
2.56571e-05
-7.01798e-10
2.56583e-05
6.70607e-10
2.56578e-05
2.139e-09
2.56562e-05
2.15711e-09
2.56546e-05
2.65914e-09
2.56529e-05
3.28773e-09
2.56511e-05
4.88941e-09
2.56495e-05
7.19642e-09
2.56479e-05
9.02135e-09
2.56467e-05
1.0432e-08
2.56458e-05
1.14954e-08
2.56451e-05
1.19202e-08
2.56447e-05
1.1785e-08
2.56448e-05
1.10265e-08
2.56452e-05
9.86404e-09
2.56459e-05
8.48772e-09
7.54166e-09
2.56465e-05
2.79262e-05
-7.81277e-11
2.79267e-05
-2.7181e-10
2.79256e-05
1.47322e-09
2.79245e-05
4.14041e-10
2.79254e-05
-2.40031e-10
2.79257e-05
1.86933e-09
2.79242e-05
3.62775e-09
2.79223e-05
4.58661e-09
2.79203e-05
5.21708e-09
2.79187e-05
6.49138e-09
2.79175e-05
8.46162e-09
2.79164e-05
1.00945e-08
2.79157e-05
1.10922e-08
2.79155e-05
1.17832e-08
2.79154e-05
1.19701e-08
2.79157e-05
1.15342e-08
2.79161e-05
1.05597e-08
2.79166e-05
9.36398e-09
2.79169e-05
8.1694e-09
7.24217e-09
2.79172e-05
3.03951e-05
5.14616e-11
3.03949e-05
-4.25561e-11
3.0395e-05
1.34417e-09
3.03936e-05
1.86658e-09
3.03926e-05
7.0508e-10
3.03932e-05
1.35151e-09
3.03928e-05
3.97751e-09
3.03911e-05
6.26159e-09
3.03891e-05
7.28798e-09
3.03875e-05
8.01413e-09
3.03867e-05
9.35329e-09
3.03861e-05
1.06345e-08
3.03859e-05
1.13506e-08
3.03861e-05
1.15394e-08
3.03866e-05
1.14712e-08
3.03872e-05
1.09784e-08
3.03876e-05
1.00904e-08
3.03879e-05
9.12527e-09
3.03879e-05
8.11207e-09
7.22001e-09
3.03879e-05
3.30822e-05
5.45809e-11
3.30816e-05
5.38613e-10
3.30819e-05
1.06591e-09
3.30813e-05
2.4307e-09
3.30796e-05
2.45311e-09
3.30788e-05
2.13373e-09
3.30789e-05
3.80176e-09
3.30783e-05
6.88808e-09
3.30767e-05
8.91302e-09
3.30751e-05
9.63756e-09
3.30744e-05
1.00422e-08
3.30744e-05
1.06398e-08
3.30747e-05
1.09783e-08
3.30753e-05
1.09475e-08
3.30759e-05
1.08662e-08
3.30764e-05
1.0516e-08
3.30767e-05
9.81375e-09
3.30768e-05
9.00418e-09
3.30769e-05
8.00676e-09
7.17013e-09
3.3077e-05
3.60066e-05
7.84202e-11
3.60061e-05
9.71801e-10
3.60057e-05
1.45593e-09
3.60058e-05
2.35949e-09
3.60047e-05
3.60268e-09
3.60029e-05
3.91117e-09
3.60024e-05
4.30345e-09
3.60027e-05
6.51972e-09
3.60023e-05
9.31107e-09
3.60013e-05
1.07165e-08
3.60003e-05
1.10095e-08
3.60003e-05
1.0657e-08
3.60008e-05
1.04447e-08
3.60014e-05
1.03443e-08
3.6002e-05
1.0333e-08
3.60024e-05
1.0113e-08
3.60026e-05
9.58231e-09
3.60028e-05
8.76169e-09
3.6003e-05
7.83311e-09
7.05539e-09
3.60031e-05
3.91893e-05
2.449e-10
3.91892e-05
1.15582e-09
3.91885e-05
2.13964e-09
3.91883e-05
2.53413e-09
3.91881e-05
3.83545e-09
3.91867e-05
5.31032e-09
3.91852e-05
5.78241e-09
3.91852e-05
6.52523e-09
3.91859e-05
8.62753e-09
3.91858e-05
1.07897e-08
3.91852e-05
1.15631e-08
3.91847e-05
1.11599e-08
3.9185e-05
1.01398e-08
3.91858e-05
9.6175e-09
3.91867e-05
9.44463e-09
3.91873e-05
9.47924e-09
3.91877e-05
9.19009e-09
3.91878e-05
8.65014e-09
3.91878e-05
7.8114e-09
7.03026e-09
3.91878e-05
4.26535e-05
5.07335e-10
4.26535e-05
1.20911e-09
4.26529e-05
2.68707e-09
4.26523e-05
3.20824e-09
4.26522e-05
3.92057e-09
4.26517e-05
5.78776e-09
4.26504e-05
7.04911e-09
4.26497e-05
7.24162e-09
4.26503e-05
8.04061e-09
4.26513e-05
9.79571e-09
4.26515e-05
1.13423e-08
4.26513e-05
1.14137e-08
4.2651e-05
1.04152e-08
4.26514e-05
9.18659e-09
4.26522e-05
8.66084e-09
4.26531e-05
8.62547e-09
4.26535e-05
8.72041e-09
4.26537e-05
8.45463e-09
4.26537e-05
7.78761e-09
7.01504e-09
4.26538e-05
4.64241e-05
7.31791e-10
4.64239e-05
1.39702e-09
4.64236e-05
2.94878e-09
4.64229e-05
3.95919e-09
4.64226e-05
4.26429e-09
4.64227e-05
5.66742e-09
4.64222e-05
7.56224e-09
4.64213e-05
8.12268e-09
4.64213e-05
8.05229e-09
4.64222e-05
8.84837e-09
4.64234e-05
1.02063e-08
4.64237e-05
1.10519e-08
4.64236e-05
1.048e-08
4.64236e-05
9.26428e-09
4.64241e-05
8.14193e-09
4.64249e-05
7.83319e-09
4.64257e-05
7.88588e-09
4.64262e-05
7.977e-09
4.64264e-05
7.61089e-09
6.98605e-09
4.64264e-05
5.0528e-05
8.48876e-10
5.05277e-05
1.74308e-09
5.05276e-05
3.02419e-09
5.05271e-05
4.43469e-09
5.05266e-05
4.83142e-09
5.05266e-05
5.60635e-09
5.05269e-05
7.32087e-09
5.05266e-05
8.39877e-09
5.05263e-05
8.38379e-09
5.05268e-05
8.28388e-09
5.0528e-05
9.02875e-09
5.05291e-05
9.97537e-09
5.05295e-05
1.01177e-08
5.05295e-05
9.24108e-09
5.05295e-05
8.09539e-09
5.05301e-05
7.2953e-09
5.05308e-05
7.14316e-09
5.05316e-05
7.21411e-09
5.0532e-05
7.19027e-09
6.8053e-09
5.05322e-05
5.49947e-05
8.76189e-10
5.49944e-05
2.10738e-09
5.49943e-05
3.10099e-09
5.49942e-05
4.54995e-09
5.49938e-05
5.25281e-09
5.49937e-05
5.65076e-09
5.49942e-05
6.84184e-09
5.49945e-05
8.13e-09
5.49944e-05
8.40083e-09
5.49946e-05
8.13288e-09
5.49955e-05
8.15708e-09
5.49967e-05
8.76764e-09
5.49976e-05
9.18422e-09
5.4998e-05
8.86363e-09
5.49981e-05
7.96845e-09
5.49983e-05
7.08596e-09
5.49989e-05
6.56663e-09
5.49996e-05
6.49788e-09
5.50003e-05
6.49753e-09
6.344e-09
5.50008e-05
5.98562e-05
8.63912e-10
5.9856e-05
2.32796e-09
5.98559e-05
3.19886e-09
5.9856e-05
4.43032e-09
5.98559e-05
5.34738e-09
5.98559e-05
5.71982e-09
5.98563e-05
6.41756e-09
5.9857e-05
7.45415e-09
5.98574e-05
7.97812e-09
5.98577e-05
7.86766e-09
5.98582e-05
7.5985e-09
5.98592e-05
7.75365e-09
5.98603e-05
8.07221e-09
5.98611e-05
8.08926e-09
5.98615e-05
7.56893e-09
5.98618e-05
6.83714e-09
5.98621e-05
6.2236e-09
5.98627e-05
5.90982e-09
5.98634e-05
5.82232e-09
5.70341e-09
5.9864e-05
6.51474e-05
8.2955e-10
6.51474e-05
2.37336e-09
6.51474e-05
3.24332e-09
6.51476e-05
4.19441e-09
6.51478e-05
5.11465e-09
6.5148e-05
5.57287e-09
6.51484e-05
5.98703e-09
6.51492e-05
6.69688e-09
6.51499e-05
7.25271e-09
6.51504e-05
7.3132e-09
6.51509e-05
7.08798e-09
6.51518e-05
6.94761e-09
6.51528e-05
7.05755e-09
6.51538e-05
7.09998e-09
6.51545e-05
6.87457e-09
6.51549e-05
6.35915e-09
6.51553e-05
5.82633e-09
6.51558e-05
5.40949e-09
6.51565e-05
5.19177e-09
5.0465e-09
6.51571e-05
7.09064e-05
7.82082e-10
7.09065e-05
2.25739e-09
7.09066e-05
3.12427e-09
7.0907e-05
3.86001e-09
7.09074e-05
4.65169e-09
7.09078e-05
5.16249e-09
7.09083e-05
5.48996e-09
7.09091e-05
5.92409e-09
7.091e-05
6.34525e-09
7.09108e-05
6.498e-09
7.09115e-05
6.38216e-09
7.09123e-05
6.19027e-09
7.09132e-05
6.12484e-09
7.09142e-05
6.10509e-09
7.09151e-05
5.98119e-09
7.09158e-05
5.67176e-09
7.09164e-05
5.26066e-09
7.09169e-05
4.87886e-09
7.09175e-05
4.58748e-09
4.39758e-09
7.09181e-05
7.71744e-05
7.05656e-10
7.71747e-05
2.00678e-09
7.7175e-05
2.82242e-09
7.71754e-05
3.41022e-09
7.71761e-05
4.01739e-09
7.71767e-05
4.50902e-09
7.71774e-05
4.80613e-09
7.71782e-05
5.07435e-09
7.71792e-05
5.35107e-09
7.71802e-05
5.51549e-09
7.71811e-05
5.48912e-09
7.7182e-05
5.33842e-09
7.71829e-05
5.2014e-09
7.71839e-05
5.09862e-09
7.71849e-05
4.983e-09
7.71858e-05
4.79582e-09
7.71865e-05
4.53274e-09
7.71871e-05
4.23692e-09
7.71878e-05
3.96608e-09
3.73851e-09
7.71884e-05
8.39965e-05
5.90124e-10
8.39969e-05
1.64184e-09
8.39974e-05
2.33559e-09
8.3998e-05
2.80516e-09
8.39988e-05
3.24448e-09
8.39996e-05
3.64449e-09
8.40005e-05
3.92309e-09
8.40015e-05
4.11621e-09
8.40026e-05
4.28373e-09
8.40037e-05
4.40012e-09
8.40047e-05
4.41679e-09
8.40057e-05
4.33306e-09
8.40067e-05
4.20626e-09
8.40078e-05
4.07865e-09
8.40088e-05
3.95392e-09
8.40098e-05
3.80823e-09
8.40107e-05
3.6262e-09
8.40115e-05
3.41798e-09
8.40123e-05
3.2075e-09
3.01858e-09
8.4013e-05
9.14217e-05
4.44312e-10
9.14222e-05
1.1905e-09
9.14228e-05
1.69095e-09
9.14236e-05
2.03766e-09
9.14245e-05
2.34379e-09
9.14255e-05
2.62921e-09
9.14266e-05
2.84972e-09
9.14277e-05
2.99876e-09
9.14289e-05
3.1042e-09
9.14301e-05
3.17311e-09
9.14313e-05
3.19148e-09
9.14325e-05
3.15089e-09
9.14337e-05
3.06909e-09
9.14348e-05
2.97104e-09
9.14358e-05
2.86966e-09
9.14369e-05
2.76208e-09
9.14379e-05
2.64092e-09
9.14388e-05
2.50555e-09
9.14396e-05
2.36258e-09
2.2185e-09
9.14404e-05
9.95034e-05
9.95039e-05
9.95047e-05
9.95057e-05
9.95068e-05
9.9508e-05
9.95092e-05
9.95105e-05
9.95119e-05
9.95133e-05
9.95146e-05
9.9516e-05
9.95173e-05
9.95185e-05
9.95197e-05
9.95209e-05
9.9522e-05
9.9523e-05
9.9524e-05
9.95249e-05
1.98557e-05
1.06476e-08
1.98433e-05
1.24225e-08
1.98285e-05
1.47682e-08
1.98115e-05
1.69982e-08
1.97928e-05
1.86992e-08
1.97728e-05
1.99984e-08
1.97517e-05
2.11424e-08
1.97297e-05
2.19177e-08
1.97076e-05
2.21196e-08
1.96853e-05
2.22908e-08
1.96627e-05
2.26747e-08
1.96393e-05
2.33208e-08
1.96152e-05
2.41549e-08
1.95902e-05
2.49557e-08
1.95646e-05
2.56769e-08
1.95381e-05
2.64259e-08
1.9511e-05
2.7084e-08
1.94836e-05
2.74942e-08
1.94559e-05
2.76901e-08
1.94282e-05
2.76697e-08
1.94007e-05
2.75109e-08
1.93734e-05
2.72921e-08
1.93464e-05
2.69636e-08
1.93197e-05
2.67297e-08
1.92929e-05
2.67959e-08
1.92659e-05
2.70306e-08
1.92383e-05
2.75189e-08
1.92099e-05
2.84327e-08
1.91803e-05
2.96221e-08
1.91492e-05
3.10542e-08
1.91166e-05
3.2621e-08
1.90827e-05
3.39007e-08
1.90479e-05
3.48152e-08
1.90125e-05
3.54189e-08
1.8977e-05
3.54928e-08
1.89417e-05
3.52479e-08
1.89066e-05
3.51732e-08
1.88713e-05
3.53211e-08
1.88353e-05
3.59448e-08
1.87978e-05
3.74876e-08
1.87586e-05
3.92213e-08
1.87187e-05
3.9894e-08
1.8679e-05
3.97303e-08
1.86392e-05
3.98206e-08
1.85989e-05
4.02602e-08
1.85582e-05
4.07139e-08
1.85167e-05
4.15271e-08
1.84739e-05
4.27363e-08
1.84305e-05
4.346e-08
1.83869e-05
4.35781e-08
1.83427e-05
4.41823e-08
1.82972e-05
4.55324e-08
1.82508e-05
4.63816e-08
1.82044e-05
4.63604e-08
1.81576e-05
4.68e-08
1.81092e-05
4.8464e-08
1.80592e-05
4.99143e-08
1.80094e-05
4.9851e-08
1.79601e-05
4.92593e-08
1.79098e-05
5.03046e-08
1.78569e-05
5.29329e-08
1.78021e-05
5.48176e-08
1.7748e-05
5.40451e-08
1.76961e-05
5.19001e-08
1.76447e-05
5.14393e-08
1.75902e-05
5.44879e-08
1.75307e-05
5.94883e-08
1.7468e-05
6.26899e-08
1.74071e-05
6.09713e-08
1.73535e-05
5.358e-08
1.7311e-05
4.24702e-08
1.72808e-05
3.02351e-08
1.72613e-05
1.95002e-08
1.725e-05
1.12212e-08
1.72442e-05
5.81901e-09
1.72416e-05
2.59643e-09
1.72407e-05
9.47964e-10
1.72405e-05
2.18643e-10
1.72406e-05
-8.80779e-11
1.72406e-05
-8.97154e-11
1.72408e-05
-1.291e-10
1.72408e-05
-5.3905e-11
1.72409e-05
-4.19734e-11
1.72409e-05
-3.40702e-11
1.72409e-05
1.57361e-11
1.72409e-05
-2.33044e-11
1.72409e-05
1.79419e-11
1.72409e-05
9.00394e-12
1.72409e-05
-1.02718e-11
1.72409e-05
3.67504e-11
1.72409e-05
-2.10767e-11
1.72408e-05
3.3858e-11
1.72408e-05
-3.87319e-12
1.72408e-05
1.89567e-11
1.72408e-05
1.17194e-11
1.72408e-05
4.55175e-11
1.72408e-05
-3.6667e-11
1.72406e-05
1.5908e-10
1.72407e-05
-6.943e-11
3.36959e-10
2.16422e-05
8.45539e-09
2.1645e-05
9.64697e-09
2.1648e-05
1.17012e-08
2.16509e-05
1.41386e-08
2.16532e-05
1.63939e-08
2.1655e-05
1.82109e-08
2.16563e-05
1.97764e-08
2.16571e-05
2.11171e-08
2.16574e-05
2.19108e-08
2.16575e-05
2.21288e-08
2.16579e-05
2.22569e-08
2.16585e-05
2.27251e-08
2.16592e-05
2.34553e-08
2.166e-05
2.41931e-08
2.16608e-05
2.49121e-08
2.16615e-05
2.57215e-08
2.1662e-05
2.65312e-08
2.16624e-05
2.71502e-08
2.16625e-05
2.75156e-08
2.16626e-05
2.76121e-08
2.16625e-05
2.75475e-08
2.16624e-05
2.74247e-08
2.16622e-05
2.72054e-08
2.16618e-05
2.70715e-08
2.16614e-05
2.72334e-08
2.16608e-05
2.75961e-08
2.16602e-05
2.81939e-08
2.16595e-05
2.91295e-08
2.16588e-05
3.02756e-08
2.16582e-05
3.16565e-08
2.16576e-05
3.31893e-08
2.16571e-05
3.44048e-08
2.16567e-05
3.52225e-08
2.16563e-05
3.58418e-08
2.16557e-05
3.60711e-08
2.1655e-05
3.59871e-08
2.16541e-05
3.61053e-08
2.16528e-05
3.65279e-08
2.16515e-05
3.73213e-08
2.16501e-05
3.88066e-08
2.1649e-05
4.04138e-08
2.16478e-05
4.1071e-08
2.16465e-05
4.10318e-08
2.1645e-05
4.13344e-08
2.16432e-05
4.19972e-08
2.16413e-05
4.2605e-08
2.16394e-05
4.34987e-08
2.16373e-05
4.4792e-08
2.16351e-05
4.56481e-08
2.16328e-05
4.59019e-08
2.16303e-05
4.66324e-08
2.16277e-05
4.81351e-08
2.1625e-05
4.91493e-08
2.16221e-05
4.92459e-08
2.16191e-05
4.98138e-08
2.16159e-05
5.16825e-08
2.16124e-05
5.33356e-08
2.1609e-05
5.33207e-08
2.16055e-05
5.27383e-08
2.16018e-05
5.39972e-08
2.15977e-05
5.70456e-08
2.15934e-05
5.91479e-08
2.15893e-05
5.81092e-08
2.15857e-05
5.55099e-08
2.1582e-05
5.50912e-08
2.15776e-05
5.89402e-08
2.15721e-05
6.494e-08
2.15666e-05
6.82476e-08
2.15626e-05
6.4943e-08
2.15618e-05
5.43851e-08
2.15648e-05
3.94434e-08
2.15712e-05
2.38982e-08
2.15794e-05
1.12203e-08
2.1588e-05
2.60848e-09
2.15959e-05
-2.00269e-09
2.16021e-05
-3.67593e-09
2.16067e-05
-3.63553e-09
2.16098e-05
-2.82494e-09
2.16116e-05
-1.95751e-09
2.16127e-05
-1.12272e-09
2.16132e-05
-6.59697e-10
2.16134e-05
-2.71916e-10
2.16135e-05
-1.08127e-10
2.16135e-05
-1.78346e-11
2.16134e-05
6.18169e-11
2.16134e-05
3.58121e-11
2.16133e-05
6.91136e-11
2.16132e-05
6.88391e-11
2.16132e-05
2.34565e-11
2.16132e-05
8.88275e-11
2.16131e-05
-6.96695e-13
2.16131e-05
7.63719e-11
2.16131e-05
6.5593e-12
2.16131e-05
5.94897e-11
2.16131e-05
1.0677e-11
2.1613e-05
8.68473e-11
2.1613e-05
-3.58156e-11
2.1613e-05
1.975e-10
2.16129e-05
-3.90189e-11
3.31347e-10
2.35603e-05
8.07276e-09
2.35612e-05
8.74928e-09
2.35627e-05
1.02062e-08
2.35647e-05
1.21941e-08
2.35667e-05
1.43446e-08
2.35686e-05
1.62948e-08
2.35704e-05
1.79737e-08
2.3572e-05
1.9523e-08
2.35731e-05
2.07939e-08
2.35738e-05
2.14565e-08
2.35744e-05
2.16883e-08
2.35751e-05
2.2005e-08
2.3576e-05
2.25085e-08
2.35772e-05
2.30525e-08
2.35784e-05
2.36462e-08
2.35798e-05
2.43324e-08
2.35813e-05
2.50696e-08
2.35826e-05
2.58168e-08
2.35837e-05
2.64688e-08
2.35845e-05
2.68291e-08
2.35851e-05
2.69449e-08
2.35855e-05
2.69746e-08
2.35858e-05
2.68959e-08
2.35861e-05
2.68373e-08
2.35863e-05
2.70143e-08
2.35865e-05
2.74145e-08
2.35866e-05
2.805e-08
2.35868e-05
2.89048e-08
2.35872e-05
2.98506e-08
2.35879e-05
3.10013e-08
2.35888e-05
3.23194e-08
2.35899e-05
3.33263e-08
2.35911e-05
3.39724e-08
2.35924e-05
3.45845e-08
2.35934e-05
3.49996e-08
2.35943e-05
3.513e-08
2.3595e-05
3.54026e-08
2.35956e-05
3.59446e-08
2.35962e-05
3.67143e-08
2.35971e-05
3.79136e-08
2.35983e-05
3.9177e-08
2.35996e-05
3.97822e-08
2.36007e-05
3.99787e-08
2.36015e-05
4.04966e-08
2.36023e-05
4.1222e-08
2.36031e-05
4.18172e-08
2.36039e-05
4.26317e-08
2.36049e-05
4.38025e-08
2.36059e-05
4.46569e-08
2.36068e-05
4.50341e-08
2.36076e-05
4.57801e-08
2.36086e-05
4.71487e-08
2.36096e-05
4.81429e-08
2.36105e-05
4.83878e-08
2.36113e-05
4.89822e-08
2.36124e-05
5.06315e-08
2.36135e-05
5.21528e-08
2.36145e-05
5.23302e-08
2.36153e-05
5.19819e-08
2.36162e-05
5.30544e-08
2.36177e-05
5.56049e-08
2.36194e-05
5.7454e-08
2.36207e-05
5.67825e-08
2.36215e-05
5.47419e-08
2.36222e-05
5.43463e-08
2.36238e-05
5.73334e-08
2.36267e-05
6.20268e-08
2.36306e-05
6.4341e-08
2.36346e-05
6.09783e-08
2.36376e-05
5.13544e-08
2.36391e-05
3.79274e-08
2.36391e-05
2.39419e-08
2.3638e-05
1.236e-08
2.36363e-05
4.24588e-09
2.36346e-05
-2.65199e-10
2.3633e-05
-2.04754e-09
2.36317e-05
-2.35593e-09
2.36307e-05
-1.85794e-09
2.363e-05
-1.26926e-09
2.36295e-05
-6.37071e-10
2.36292e-05
-3.00621e-10
2.36289e-05
-1.34348e-11
2.36287e-05
9.70679e-11
2.36285e-05
1.49681e-10
2.36284e-05
1.89537e-10
2.36283e-05
1.58868e-10
2.36282e-05
1.51796e-10
2.36281e-05
1.60582e-10
2.36281e-05
8.07391e-11
2.3628e-05
1.53816e-10
2.3628e-05
4.05738e-11
2.36279e-05
1.23671e-10
2.36279e-05
3.28215e-11
2.36278e-05
9.98767e-11
2.36278e-05
2.36861e-11
2.36278e-05
1.20402e-10
2.36278e-05
-1.32841e-11
2.36278e-05
1.98445e-10
2.36277e-05
1.42281e-11
2.97789e-10
2.5647e-05
7.5838e-09
2.56476e-05
8.13837e-09
2.56485e-05
9.31059e-09
2.56497e-05
1.09548e-08
2.56513e-05
1.28093e-08
2.56529e-05
1.46415e-08
2.56546e-05
1.62968e-08
2.56563e-05
1.78374e-08
2.56578e-05
1.9279e-08
2.56589e-05
2.03101e-08
2.56598e-05
2.08472e-08
2.56605e-05
2.1234e-08
2.56614e-05
2.16749e-08
2.56623e-05
2.21637e-08
2.56632e-05
2.27022e-08
2.56643e-05
2.32536e-08
2.56656e-05
2.38046e-08
2.56669e-05
2.44637e-08
2.56681e-05
2.52445e-08
2.56691e-05
2.58891e-08
2.56698e-05
2.62173e-08
2.56704e-05
2.63908e-08
2.56708e-05
2.64861e-08
2.56712e-05
2.64671e-08
2.56716e-05
2.65577e-08
2.56721e-05
2.69531e-08
2.56725e-05
2.7599e-08
2.56731e-05
2.83873e-08
2.56736e-05
2.92555e-08
2.56744e-05
3.02917e-08
2.56752e-05
3.14573e-08
2.56762e-05
3.23246e-08
2.56774e-05
3.28276e-08
2.56786e-05
3.33769e-08
2.56797e-05
3.39099e-08
2.56806e-05
3.42074e-08
2.56814e-05
3.45708e-08
2.56822e-05
3.5189e-08
2.56829e-05
3.59376e-08
2.5684e-05
3.68458e-08
2.56854e-05
3.78073e-08
2.56867e-05
3.84997e-08
2.56877e-05
3.89768e-08
2.56886e-05
3.95493e-08
2.56896e-05
4.02116e-08
2.56906e-05
4.08541e-08
2.56916e-05
4.16263e-08
2.56928e-05
4.25831e-08
2.5694e-05
4.34272e-08
2.5695e-05
4.40593e-08
2.5696e-05
4.48281e-08
2.56972e-05
4.58727e-08
2.56986e-05
4.67653e-08
2.56997e-05
4.73385e-08
2.57006e-05
4.80918e-08
2.57019e-05
4.93392e-08
2.57035e-05
5.04634e-08
2.5705e-05
5.08873e-08
2.57059e-05
5.10916e-08
2.57068e-05
5.21081e-08
2.57086e-05
5.38556e-08
2.5711e-05
5.50477e-08
2.57131e-05
5.46995e-08
2.57142e-05
5.36078e-08
2.57149e-05
5.36456e-08
2.57165e-05
5.57463e-08
2.57199e-05
5.86422e-08
2.57247e-05
5.94952e-08
2.57296e-05
5.60607e-08
2.57331e-05
4.78705e-08
2.57344e-05
3.66657e-08
2.57335e-05
2.47895e-08
2.57313e-05
1.45842e-08
2.57285e-05
7.07286e-09
2.57258e-05
2.38e-09
2.57237e-05
5.34732e-11
2.57223e-05
-9.10192e-10
2.57213e-05
-8.81315e-10
2.57207e-05
-6.4485e-10
2.57203e-05
-2.2166e-10
2.572e-05
-1.08603e-12
2.57198e-05
2.06541e-10
2.57196e-05
2.82927e-10
2.57194e-05
3.1051e-10
2.57193e-05
3.21231e-10
2.57191e-05
2.86918e-10
2.57191e-05
2.4514e-10
2.5719e-05
2.55312e-10
2.57189e-05
1.50307e-10
2.57188e-05
2.1758e-10
2.57188e-05
9.43815e-11
2.57187e-05
1.66039e-10
2.57187e-05
7.23096e-11
2.57187e-05
1.31308e-10
2.57186e-05
5.16745e-11
2.57186e-05
1.42214e-10
2.57186e-05
1.95848e-11
2.57186e-05
1.98211e-10
2.57185e-05
5.69959e-11
2.71712e-10
2.79175e-05
7.31015e-09
2.79178e-05
7.82615e-09
2.79183e-05
8.82704e-09
2.7919e-05
1.02203e-08
2.79201e-05
1.18022e-08
2.79213e-05
1.34204e-08
2.79226e-05
1.49599e-08
2.79241e-05
1.63975e-08
2.79255e-05
1.77973e-08
2.79269e-05
1.89813e-08
2.7928e-05
1.97251e-08
2.7929e-05
2.01833e-08
2.79301e-05
2.06185e-08
2.79312e-05
2.11035e-08
2.79322e-05
2.16291e-08
2.79333e-05
2.2156e-08
2.79345e-05
2.26379e-08
2.79358e-05
2.31545e-08
2.79372e-05
2.387e-08
2.79384e-05
2.46875e-08
2.79393e-05
2.52984e-08
2.794e-05
2.56879e-08
2.79405e-05
2.59728e-08
2.79409e-05
2.60827e-08
2.79413e-05
2.61734e-08
2.79417e-05
2.65274e-08
2.79422e-05
2.71234e-08
2.79428e-05
2.77954e-08
2.79435e-05
2.8521e-08
2.79443e-05
2.94509e-08
2.79453e-05
3.05343e-08
2.79463e-05
3.1288e-08
2.79475e-05
3.16613e-08
2.79487e-05
3.21628e-08
2.79498e-05
3.27652e-08
2.79509e-05
3.31752e-08
2.79518e-05
3.36246e-08
2.79527e-05
3.42903e-08
2.79536e-05
3.50134e-08
2.79547e-05
3.578e-08
2.79559e-05
3.65703e-08
2.79572e-05
3.72143e-08
2.79584e-05
3.77717e-08
2.79595e-05
3.84365e-08
2.79606e-05
3.91457e-08
2.79617e-05
3.97875e-08
2.79628e-05
4.04969e-08
2.7964e-05
4.13692e-08
2.79652e-05
4.2207e-08
2.79664e-05
4.28874e-08
2.79676e-05
4.36345e-08
2.79689e-05
4.45949e-08
2.79702e-05
4.54812e-08
2.79714e-05
4.61145e-08
2.79726e-05
4.68306e-08
2.79741e-05
4.79212e-08
2.79755e-05
4.8982e-08
2.79769e-05
4.95243e-08
2.79782e-05
4.98119e-08
2.79797e-05
5.06113e-08
2.79816e-05
5.19779e-08
2.79836e-05
5.30195e-08
2.79853e-05
5.29477e-08
2.79867e-05
5.22051e-08
2.79883e-05
5.21088e-08
2.79906e-05
5.33832e-08
2.79941e-05
5.5188e-08
2.79982e-05
5.53931e-08
2.80021e-05
5.22064e-08
2.80048e-05
4.51376e-08
2.8006e-05
3.54881e-08
2.80056e-05
2.51272e-08
2.80042e-05
1.59678e-08
2.80024e-05
8.95542e-09
2.80004e-05
4.36449e-09
2.79986e-05
1.84848e-09
2.79971e-05
6.2512e-10
2.79959e-05
3.06774e-10
2.7995e-05
2.48334e-10
2.79943e-05
4.22647e-10
2.79938e-05
4.74663e-10
2.79935e-05
5.57757e-10
2.79932e-05
5.51096e-10
2.7993e-05
5.21441e-10
2.79929e-05
4.84204e-10
2.79927e-05
4.31041e-10
2.79926e-05
3.54415e-10
2.79925e-05
3.5409e-10
2.79924e-05
2.3201e-10
2.79924e-05
2.8056e-10
2.79923e-05
1.58603e-10
2.79923e-05
2.05566e-10
2.79922e-05
1.21053e-10
2.79922e-05
1.57958e-10
2.79921e-05
8.90347e-11
2.79921e-05
1.57463e-10
2.79921e-05
5.88612e-11
2.79921e-05
1.95483e-10
2.79921e-05
9.3295e-11
2.51902e-10
3.0388e-05
7.24925e-09
3.03882e-05
7.6716e-09
3.03885e-05
8.52341e-09
3.0389e-05
9.68346e-09
3.03898e-05
1.10027e-08
3.03908e-05
1.23782e-08
3.03921e-05
1.37355e-08
3.03935e-05
1.50007e-08
3.0395e-05
1.62743e-08
3.03965e-05
1.75012e-08
3.03978e-05
1.84168e-08
3.03989e-05
1.90308e-08
3.04e-05
1.95569e-08
3.0401e-05
2.01053e-08
3.0402e-05
2.06637e-08
3.04029e-05
2.12131e-08
3.04038e-05
2.1731e-08
3.04048e-05
2.21533e-08
3.0406e-05
2.26647e-08
3.04073e-05
2.3424e-08
3.04084e-05
2.42031e-08
3.04093e-05
2.47788e-08
3.04101e-05
2.5138e-08
3.04109e-05
2.53374e-08
3.04115e-05
2.55199e-08
3.04122e-05
2.58594e-08
3.04129e-05
2.64065e-08
3.04137e-05
2.70186e-08
3.04146e-05
2.76072e-08
3.04156e-05
2.84435e-08
3.04166e-05
2.95685e-08
3.04175e-05
3.03192e-08
3.04186e-05
3.0587e-08
3.04197e-05
3.10168e-08
3.04209e-05
3.164e-08
3.0422e-05
3.20858e-08
3.04231e-05
3.25376e-08
3.04241e-05
3.32372e-08
3.04251e-05
3.3993e-08
3.04262e-05
3.46642e-08
3.04275e-05
3.53055e-08
3.04288e-05
3.59362e-08
3.043e-05
3.65657e-08
3.04312e-05
3.72388e-08
3.04324e-05
3.795e-08
3.04335e-05
3.86413e-08
3.04347e-05
3.93106e-08
3.0436e-05
4.00348e-08
3.04374e-05
4.08401e-08
3.04387e-05
4.16432e-08
3.04399e-05
4.24122e-08
3.04413e-05
4.32073e-08
3.04427e-05
4.40039e-08
3.04441e-05
4.47576e-08
3.04454e-05
4.55549e-08
3.04468e-05
4.64694e-08
3.04485e-05
4.73082e-08
3.04501e-05
4.78915e-08
3.04516e-05
4.83947e-08
3.0453e-05
4.91719e-08
3.04548e-05
5.0155e-08
3.0457e-05
5.08177e-08
3.04592e-05
5.0795e-08
3.0461e-05
5.04222e-08
3.04626e-05
5.04719e-08
3.04647e-05
5.12331e-08
3.04679e-05
5.20261e-08
3.04719e-05
5.1386e-08
3.04759e-05
4.81678e-08
3.0479e-05
4.20745e-08
3.04805e-05
3.40178e-08
3.04803e-05
2.53256e-08
3.04788e-05
1.74158e-08
3.04767e-05
1.10866e-08
3.04745e-05
6.58666e-09
3.04725e-05
3.78378e-09
3.0471e-05
2.133e-09
3.047e-05
1.39363e-09
3.04692e-05
1.01615e-09
3.04687e-05
9.49841e-10
3.04683e-05
8.68278e-10
3.0468e-05
8.52764e-10
3.04677e-05
7.93779e-10
3.04675e-05
7.23654e-10
3.04674e-05
6.50003e-10
3.04672e-05
5.78092e-10
3.04671e-05
4.73659e-10
3.0467e-05
4.55099e-10
3.04669e-05
3.23415e-10
3.04668e-05
3.44825e-10
3.04668e-05
2.29544e-10
3.04667e-05
2.46692e-10
3.04667e-05
1.73415e-10
3.04666e-05
1.86495e-10
3.04666e-05
1.27682e-10
3.04666e-05
1.74919e-10
3.04666e-05
9.54913e-11
3.04665e-05
1.96351e-10
3.04665e-05
1.22884e-10
2.37194e-10
3.3077e-05
7.19236e-09
3.30771e-05
7.56207e-09
3.30773e-05
8.35082e-09
3.30776e-05
9.38346e-09
3.30781e-05
1.05083e-08
3.30788e-05
1.16371e-08
3.30798e-05
1.27675e-08
3.3081e-05
1.38492e-08
3.30822e-05
1.49911e-08
3.30835e-05
1.61954e-08
3.30848e-05
1.71654e-08
3.3086e-05
1.78373e-08
3.30872e-05
1.8359e-08
3.30884e-05
1.88651e-08
3.30897e-05
1.94179e-08
3.30908e-05
2.00409e-08
3.30919e-05
2.06568e-08
3.3093e-05
2.10804e-08
3.30942e-05
2.14274e-08
3.30956e-05
2.20591e-08
3.30969e-05
2.29316e-08
3.30979e-05
2.37214e-08
3.30988e-05
2.42475e-08
3.30996e-05
2.4528e-08
3.31003e-05
2.48206e-08
3.3101e-05
2.52122e-08
3.31017e-05
2.57139e-08
3.31024e-05
2.62844e-08
3.31033e-05
2.67038e-08
3.31045e-05
2.7255e-08
3.31057e-05
2.83696e-08
3.31068e-05
2.92392e-08
3.31079e-05
2.94341e-08
3.31091e-05
2.97935e-08
3.31103e-05
3.04931e-08
3.31114e-05
3.09724e-08
3.31126e-05
3.1368e-08
3.31138e-05
3.20436e-08
3.31149e-05
3.28264e-08
3.31161e-05
3.3488e-08
3.31174e-05
3.40556e-08
3.31187e-05
3.46308e-08
3.312e-05
3.52496e-08
3.31213e-05
3.59122e-08
3.31226e-05
3.66424e-08
3.31239e-05
3.73882e-08
3.31251e-05
3.80328e-08
3.31265e-05
3.86507e-08
3.3128e-05
3.94159e-08
3.31293e-05
4.02541e-08
3.31307e-05
4.1009e-08
3.31322e-05
4.17366e-08
3.31337e-05
4.25166e-08
3.31352e-05
4.32875e-08
3.31367e-05
4.40345e-08
3.31383e-05
4.48417e-08
3.314e-05
4.56418e-08
3.31416e-05
4.62752e-08
3.31432e-05
4.67778e-08
3.3145e-05
4.73816e-08
3.3147e-05
4.81199e-08
3.31492e-05
4.86826e-08
3.31512e-05
4.87798e-08
3.31531e-05
4.85345e-08
3.31551e-05
4.84114e-08
3.31578e-05
4.86166e-08
3.31611e-05
4.87372e-08
3.31647e-05
4.77592e-08
3.3168e-05
4.48209e-08
3.31705e-05
3.96201e-08
3.31717e-05
3.27685e-08
3.31718e-05
2.52835e-08
3.31709e-05
1.82705e-08
3.31695e-05
1.24729e-08
3.3168e-05
8.15909e-09
3.31664e-05
5.31488e-09
3.31651e-05
3.50375e-09
3.31639e-05
2.53179e-09
3.3163e-05
1.9281e-09
3.31623e-05
1.64528e-09
3.31618e-05
1.40597e-09
3.31614e-05
1.25465e-09
3.31611e-05
1.10667e-09
3.31608e-05
9.6902e-10
3.31606e-05
8.44608e-10
3.31605e-05
7.40191e-10
3.31603e-05
6.07545e-10
3.31602e-05
5.61777e-10
3.31601e-05
4.23582e-10
3.316e-05
4.12723e-10
3.316e-05
3.0485e-10
3.31599e-05
2.9181e-10
3.31599e-05
2.26875e-10
3.31598e-05
2.18868e-10
3.31598e-05
1.65843e-10
3.31598e-05
1.95363e-10
3.31597e-05
1.28893e-10
3.31597e-05
2.00791e-10
3.31597e-05
1.47092e-10
2.26634e-10
3.60032e-05
7.09869e-09
3.60033e-05
7.50741e-09
3.60034e-05
8.19673e-09
3.60037e-05
9.12696e-09
3.60041e-05
1.01169e-08
3.60047e-05
1.10066e-08
3.60056e-05
1.18972e-08
3.60066e-05
1.27928e-08
3.60079e-05
1.37462e-08
3.60092e-05
1.48486e-08
3.60106e-05
1.58274e-08
3.60118e-05
1.65754e-08
3.6013e-05
1.71491e-08
3.60143e-05
1.76326e-08
3.60154e-05
1.82433e-08
3.60165e-05
1.89426e-08
3.60175e-05
1.9645e-08
3.60185e-05
2.01635e-08
3.60195e-05
2.04392e-08
3.60206e-05
2.08919e-08
3.60219e-05
2.16766e-08
3.60231e-05
2.25209e-08
3.60242e-05
2.31712e-08
3.60252e-05
2.34763e-08
3.60263e-05
2.37441e-08
3.60273e-05
2.41873e-08
3.60283e-05
2.47128e-08
3.60293e-05
2.53265e-08
3.60302e-05
2.57476e-08
3.60314e-05
2.60431e-08
3.60328e-05
2.70273e-08
3.60339e-05
2.81128e-08
3.6035e-05
2.83448e-08
3.60362e-05
2.85357e-08
3.60375e-05
2.92542e-08
3.60386e-05
2.98075e-08
3.60399e-05
3.01276e-08
3.60412e-05
3.07175e-08
3.60425e-05
3.15263e-08
3.60438e-05
3.2227e-08
3.60451e-05
3.27586e-08
3.60464e-05
3.32806e-08
3.60478e-05
3.38927e-08
3.60492e-05
3.45181e-08
3.60506e-05
3.51965e-08
3.6052e-05
3.59912e-08
3.60534e-05
3.66829e-08
3.60548e-05
3.71877e-08
3.60564e-05
3.78363e-08
3.60579e-05
3.8723e-08
3.60594e-05
3.95371e-08
3.6061e-05
4.01797e-08
3.60626e-05
4.08567e-08
3.60643e-05
4.16392e-08
3.60659e-05
4.24226e-08
3.60676e-05
4.3161e-08
3.60694e-05
4.3841e-08
3.60712e-05
4.44293e-08
3.6073e-05
4.49599e-08
3.60749e-05
4.55242e-08
3.60769e-05
4.60899e-08
3.60791e-05
4.64591e-08
3.60814e-05
4.64997e-08
3.60836e-05
4.63146e-08
3.60859e-05
4.61643e-08
3.60884e-05
4.60813e-08
3.60915e-05
4.5715e-08
3.60948e-05
4.43709e-08
3.60982e-05
4.15082e-08
3.61008e-05
3.6977e-08
3.61023e-05
3.1215e-08
3.61027e-05
2.49497e-08
3.6102e-05
1.89622e-08
3.61006e-05
1.38369e-08
3.6099e-05
9.79268e-09
3.60974e-05
6.89879e-09
3.6096e-05
4.87273e-09
3.6095e-05
3.61042e-09
3.60941e-05
2.75983e-09
3.60935e-05
2.25987e-09
3.6093e-05
1.88419e-09
3.60927e-05
1.6226e-09
3.60924e-05
1.4047e-09
3.60921e-05
1.21224e-09
3.60919e-05
1.04382e-09
3.60918e-05
9.06985e-10
3.60916e-05
7.49249e-10
3.60915e-05
6.73243e-10
3.60914e-05
5.28986e-10
3.60913e-05
4.8586e-10
3.60913e-05
3.81733e-10
3.60912e-05
3.42446e-10
3.60912e-05
2.79797e-10
3.60911e-05
2.55538e-10
3.60911e-05
2.03057e-10
3.60911e-05
2.18193e-10
3.6091e-05
1.59803e-10
3.6091e-05
2.0771e-10
3.6091e-05
1.67412e-10
2.1939e-10
3.91879e-05
7.04828e-09
3.9188e-05
7.34861e-09
3.91883e-05
7.98209e-09
3.91886e-05
8.82468e-09
3.91889e-05
9.75708e-09
3.91894e-05
1.05293e-08
3.91901e-05
1.1184e-08
3.9191e-05
1.18839e-08
3.91921e-05
1.26656e-08
3.91933e-05
1.36422e-08
3.91945e-05
1.46353e-08
3.91956e-05
1.54476e-08
3.91967e-05
1.60436e-08
3.91979e-05
1.6453e-08
3.91992e-05
1.69664e-08
3.92005e-05
1.76808e-08
3.92017e-05
1.84184e-08
3.92028e-05
1.90393e-08
3.92039e-05
1.93468e-08
3.92051e-05
1.96563e-08
3.92065e-05
2.02961e-08
3.92079e-05
2.11142e-08
3.92092e-05
2.19188e-08
3.92103e-05
2.23959e-08
3.92113e-05
2.26501e-08
3.92124e-05
2.31298e-08
3.92134e-05
2.37091e-08
3.92144e-05
2.42976e-08
3.92154e-05
2.47512e-08
3.92166e-05
2.48806e-08
3.92181e-05
2.55041e-08
3.92195e-05
2.66985e-08
3.92207e-05
2.71669e-08
3.9222e-05
2.72208e-08
3.92234e-05
2.78769e-08
3.92246e-05
2.85713e-08
3.92259e-05
2.88716e-08