/*--------------------------------*- C++ -*----------------------------------*\
| =========                 |                                                 |
| \\      /  F ield         | OpenFOAM: The Open Source CFD Toolbox           |
|  \\    /   O peration     | Version:  v2012                                 |
|   \\  /    A nd           | Website:  www.openfoam.com                      |
|    \\/     M anipulation  |                                                 |
\*---------------------------------------------------------------------------*/
FoamFile
{
    version     2.0;
    format      ascii;
    class       volVectorField;
    location    "0.3";
    object      U;
}
// * * * * * * * * * * * * * * * * * * * * * * * * * * * * * * * * * * * * * //

dimensions      [0 1 -1 0 0 0 0];


internalField   nonuniform List<vector> 
2400
(
(0.997593 -8.26567e-07 0)
(1.00221 -3.81594e-05 0)
(0.997928 1.04286e-05 0)
(1.00184 1.66235e-05 0)
(0.998195 2.00014e-05 0)
(1.0015 -1.22508e-05 0)
(0.998381 -2.46647e-05 0)
(1.0012 -1.62706e-05 0)
(0.998596 -1.2309e-05 0)
(1.00093 -1.35121e-06 0)
(0.998662 2.4819e-05 0)
(1.00068 3.83475e-05 0)
(0.998832 5.4239e-05 0)
(1.00055 6.76764e-05 0)
(0.998964 0.000124156 0)
(1.00045 0.0001761 0)
(0.99916 0.000238236 0)
(1.00049 0.000293775 0)
(0.99946 0.000330814 0)
(1.00052 0.000350224 0)
(0.999946 -3.79568e-06 0)
(1.00003 -3.86766e-05 0)
(0.99994 7.91592e-07 0)
(0.999994 2.19238e-05 0)
(0.999921 3.27265e-05 0)
(0.999933 5.67055e-07 0)
(0.999838 -1.3179e-05 0)
(0.999836 -1.06318e-05 0)
(0.999786 -9.50072e-06 0)
(0.999749 4.16309e-06 0)
(0.999681 4.33021e-05 0)
(0.999705 7.93972e-05 0)
(0.999751 0.000139718 0)
(0.999827 0.000208012 0)
(0.999874 0.000319119 0)
(0.999939 0.000410149 0)
(1.00001 0.000485631 0)
(1.0001 0.000534285 0)
(1.00017 0.000551807 0)
(1.00016 0.000547664 0)
(1 -1.06729e-05 0)
(0.999991 6.75841e-06 0)
(0.999982 -1.90499e-05 0)
(0.999973 3.97507e-06 0)
(0.999953 2.82971e-05 0)
(0.999914 2.07176e-05 0)
(0.999857 4.00021e-07 0)
(0.999821 4.97661e-06 0)
(0.9998 1.13045e-05 0)
(0.99975 4.1584e-05 0)
(0.999711 9.69411e-05 0)
(0.999743 0.000164614 0)
(0.999824 0.000245749 0)
(0.999904 0.000329031 0)
(0.999954 0.00039767 0)
(0.999987 0.00044238 0)
(1.00003 0.000446211 0)
(1.00009 0.000426027 0)
(1.00014 0.000396574 0)
(1.00013 0.000369429 0)
(1 -7.80592e-06 0)
(0.999988 6.89107e-06 0)
(0.999976 -7.8754e-06 0)
(0.999979 -1.21405e-05 0)
(0.999955 1.98012e-05 0)
(0.999905 3.31632e-05 0)
(0.999854 2.14403e-05 0)
(0.999828 3.14657e-05 0)
(0.999815 4.36306e-05 0)
(0.999782 8.56025e-05 0)
(0.999756 0.000156479 0)
(0.999789 0.000226376 0)
(0.999865 0.000288931 0)
(0.999934 0.000342309 0)
(0.999969 0.000381431 0)
(0.999983 0.000405297 0)
(1.00001 0.000407877 0)
(1.00006 0.000401014 0)
(1.00012 0.000393033 0)
(1.00013 0.000389638 0)
(1 -1.56427e-06 0)
(0.999988 -3.11922e-06 0)
(0.999972 1.74873e-05 0)
(0.999979 -4.06805e-06 0)
(0.999967 -4.24684e-06 0)
(0.999913 3.33077e-05 0)
(0.999855 5.62127e-05 0)
(0.999829 7.10264e-05 0)
(0.999825 8.43488e-05 0)
(0.999809 0.000118514 0)
(0.999791 0.000180967 0)
(0.999824 0.000243939 0)
(0.999902 0.000299962 0)
(0.999972 0.000348224 0)
(1 0.000387658 0)
(1.00001 0.000414559 0)
(1.00002 0.000424763 0)
(1.00007 0.000420152 0)
(1.00012 0.000405226 0)
(1.00013 0.000391836 0)
(1 3.86913e-07 0)
(0.999993 -3.5275e-06 0)
(0.999974 1.91656e-05 0)
(0.999968 1.812e-05 0)
(0.999969 -3.10357e-06 0)
(0.999929 1.71782e-05 0)
(0.99987 6.33002e-05 0)
(0.99984 0.000104465 0)
(0.99984 0.000130074 0)
(0.999838 0.000156133 0)
(0.999835 0.000204141 0)
(0.999869 0.000263967 0)
(0.99994 0.00031633 0)
(1 0.000360911 0)
(1.00002 0.000394872 0)
(1.00001 0.000413868 0)
(1.00001 0.000413245 0)
(1.00003 0.000397398 0)
(1.00008 0.000374816 0)
(1.0001 0.000358249 0)
(1 7.68817e-07 0)
(0.999994 2.98011e-06 0)
(0.999978 9.8482e-06 0)
(0.999969 2.99807e-05 0)
(0.999967 2.70323e-05 0)
(0.999945 2.26213e-05 0)
(0.9999 6.00478e-05 0)
(0.999865 0.000121939 0)
(0.999855 0.000170059 0)
(0.999855 0.00019893 0)
(0.999864 0.000227124 0)
(0.999907 0.00026387 0)
(0.999979 0.000304225 0)
(1.00004 0.000344194 0)
(1.00005 0.000377431 0)
(1.00002 0.000395597 0)
(0.999996 0.000394535 0)
(1.00001 0.00037982 0)
(1.00006 0.000362192 0)
(1.0001 0.000352869 0)
(1 2.11439e-07 0)
(0.999995 9.75798e-06 0)
(0.999982 1.44871e-05 0)
(0.999974 2.94044e-05 0)
(0.999964 4.66505e-05 0)
(0.999946 4.90687e-05 0)
(0.999926 6.17632e-05 0)
(0.999907 0.000115058 0)
(0.999891 0.000182178 0)
(0.999879 0.000231281 0)
(0.999885 0.000258219 0)
(0.999934 0.00027389 0)
(1.00001 0.000292144 0)
(1.00007 0.000319374 0)
(1.00008 0.000349302 0)
(1.00003 0.000373726 0)
(0.999982 0.000383847 0)
(0.999984 0.000376757 0)
(1.00003 0.000361192 0)
(1.00009 0.000350322 0)
(1 1.21768e-06 0)
(0.999995 1.23418e-05 0)
(0.999982 2.22151e-05 0)
(0.99998 2.90747e-05 0)
(0.999974 5.15419e-05 0)
(0.999951 7.72676e-05 0)
(0.999938 8.87336e-05 0)
(0.999942 0.000113867 0)
(0.999936 0.000171245 0)
(0.999913 0.000233918 0)
(0.999899 0.000275789 0)
(0.999938 0.000287674 0)
(1.00002 0.000284907 0)
(1.0001 0.000290683 0)
(1.00012 0.000314089 0)
(1.00007 0.00034643 0)
(1 0.000372043 0)
(0.999977 0.000379954 0)
(1.00002 0.000369672 0)
(1.00008 0.000356282 0)
(0.999999 3.65821e-06 0)
(0.999997 1.23632e-05 0)
(0.999983 3.07497e-05 0)
(0.999982 3.74265e-05 0)
(0.999984 5.17503e-05 0)
(0.999962 8.59869e-05 0)
(0.999944 0.000113683 0)
(0.999961 0.000127057 0)
(0.99998 0.000158886 0)
(0.999964 0.000215139 0)
(0.999932 0.000271623 0)
(0.999941 0.000300015 0)
(1.00002 0.000295797 0)
(1.00011 0.000284568 0)
(1.00015 0.000289166 0)
(1.00011 0.000314816 0)
(1.00003 0.000346519 0)
(0.999979 0.000368114 0)
(0.999992 0.000368993 0)
(1.00005 0.000358539 0)
(0.999999 6.80335e-06 0)
(0.999999 1.32539e-05 0)
(0.999985 3.3599e-05 0)
(0.999982 4.82615e-05 0)
(0.999994 5.66448e-05 0)
(0.999982 8.5552e-05 0)
(0.999957 0.000125541 0)
(0.999968 0.000146891 0)
(1 0.000160269 0)
(1.00001 0.000193884 0)
(0.999977 0.000245461 0)
(0.999958 0.000288955 0)
(1 0.000299874 0)
(1.00009 0.00028706 0)
(1.00016 0.000275337 0)
(1.00015 0.000284664 0)
(1.00009 0.000312503 0)
(1.00002 0.00034402 0)
(0.999996 0.000360861 0)
(1.00003 0.000362005 0)
(0.999998 8.2039e-06 0)
(1 1.66944e-05 0)
(0.999992 3.49836e-05 0)
(0.999985 5.66162e-05 0)
(0.999997 6.56562e-05 0)
(0.999998 8.39774e-05 0)
(0.999978 0.000122364 0)
(0.999977 0.00015492 0)
(1.00001 0.000168464 0)
(1.00004 0.000183732 0)
(1.00002 0.00021868 0)
(0.999996 0.000262893 0)
(1 0.000290023 0)
(1.00007 0.000289469 0)
(1.00014 0.000275266 0)
(1.00017 0.000270607 0)
(1.00014 0.000284318 0)
(1.00007 0.000312289 0)
(1.00003 0.000337459 0)
(1.00003 0.000350048 0)
(0.999999 8.70393e-06 0)
(1 2.14645e-05 0)
(0.999998 3.55467e-05 0)
(0.99999 5.82166e-05 0)
(1 7.33791e-05 0)
(1.00001 8.65383e-05 0)
(1 0.00011603 0)
(0.999994 0.000151101 0)
(1.00001 0.000171411 0)
(1.00005 0.000181357 0)
(1.00006 0.000198848 0)
(1.00004 0.000232082 0)
(1.00003 0.000263025 0)
(1.00006 0.000276991 0)
(1.00012 0.000271923 0)
(1.00016 0.000263766 0)
(1.00016 0.000266186 0)
(1.00012 0.000282968 0)
(1.00008 0.000307138 0)
(1.00006 0.000326107 0)
(0.999999 8.63599e-06 0)
(1 2.44906e-05 0)
(1 3.7119e-05 0)
(0.999999 5.78415e-05 0)
(1.00001 7.67719e-05 0)
(1.00002 8.92114e-05 0)
(1.00002 0.00010932 0)
(1.00001 0.000139392 0)
(1.00002 0.000164116 0)
(1.00005 0.000177007 0)
(1.00007 0.000187291 0)
(1.00007 0.000207234 0)
(1.00006 0.000233863 0)
(1.00007 0.00025361 0)
(1.0001 0.000259831 0)
(1.00015 0.000256353 0)
(1.00017 0.000254746 0)
(1.00015 0.000262102 0)
(1.00012 0.000278258 0)
(1.0001 0.000296048 0)
(1 8.32252e-06 0)
(1 2.59551e-05 0)
(1.00001 3.85892e-05 0)
(1.00001 5.53119e-05 0)
(1.00001 7.42078e-05 0)
(1.00002 8.85705e-05 0)
(1.00003 0.000104184 0)
(1.00003 0.000127253 0)
(1.00004 0.000150599 0)
(1.00006 0.000166386 0)
(1.00008 0.000176023 0)
(1.00009 0.000188056 0)
(1.00009 0.00020622 0)
(1.00009 0.000224816 0)
(1.00011 0.000236395 0)
(1.00014 0.000239849 0)
(1.00016 0.000240197 0)
(1.00017 0.000243498 0)
(1.00016 0.000252814 0)
(1.00014 0.000265822 0)
(1 7.98253e-06 0)
(1 2.53575e-05 0)
(1.00001 3.8113e-05 0)
(1.00001 5.1956e-05 0)
(1.00002 6.89146e-05 0)
(1.00003 8.38737e-05 0)
(1.00004 9.72993e-05 0)
(1.00005 0.000114343 0)
(1.00005 0.000133488 0)
(1.00007 0.000149591 0)
(1.00009 0.000160494 0)
(1.0001 0.000170017 0)
(1.0001 0.000182218 0)
(1.00011 0.000196507 0)
(1.00012 0.000208773 0)
(1.00014 0.000216003 0)
(1.00016 0.000219604 0)
(1.00017 0.000222572 0)
(1.00017 0.000228215 0)
(1.00017 0.000236651 0)
(1 7.39079e-06 0)
(1 2.32301e-05 0)
(1.00001 3.56045e-05 0)
(1.00002 4.71635e-05 0)
(1.00002 6.09053e-05 0)
(1.00003 7.46016e-05 0)
(1.00005 8.68429e-05 0)
(1.00006 0.000100182 0)
(1.00007 0.000115268 0)
(1.00008 0.000129414 0)
(1.00009 0.000140361 0)
(1.00011 0.000148945 0)
(1.00012 0.000157981 0)
(1.00012 0.000168215 0)
(1.00013 0.000178475 0)
(1.00015 0.000186431 0)
(1.00016 0.000191742 0)
(1.00018 0.000195599 0)
(1.00018 0.000199845 0)
(1.00019 0.000205473 0)
(1 6.52716e-06 0)
(1 1.99482e-05 0)
(1.00001 3.08073e-05 0)
(1.00002 4.02604e-05 0)
(1.00003 5.08535e-05 0)
(1.00004 6.21535e-05 0)
(1.00005 7.26214e-05 0)
(1.00006 8.28899e-05 0)
(1.00007 9.39981e-05 0)
(1.00009 0.000104988 0)
(1.0001 0.00011443 0)
(1.00011 0.000121994 0)
(1.00013 0.000128912 0)
(1.00014 0.000136174 0)
(1.00014 0.000143701 0)
(1.00016 0.000150479 0)
(1.00017 0.000155759 0)
(1.00018 0.000159711 0)
(1.00019 0.000163182 0)
(1.0002 0.000167026 0)
(1 5.47964e-06 0)
(1 1.65179e-05 0)
(1.00001 2.57184e-05 0)
(1.00002 3.37748e-05 0)
(1.00003 4.23386e-05 0)
(1.00004 5.1702e-05 0)
(1.00006 6.09046e-05 0)
(1.00007 6.97248e-05 0)
(1.00008 7.86298e-05 0)
(1.00009 8.75302e-05 0)
(1.00011 9.57735e-05 0)
(1.00012 0.000102824 0)
(1.00013 0.000108991 0)
(1.00014 0.000114886 0)
(1.00015 0.000120779 0)
(1.00016 0.000126396 0)
(1.00017 0.000131309 0)
(1.00019 0.000135396 0)
(1.0002 0.000138888 0)
(1.00021 0.000142221 0)
(1 2.47168e-06 0)
(1 7.48542e-06 0)
(1.00001 1.17629e-05 0)
(1.00002 1.56148e-05 0)
(1.00003 1.96686e-05 0)
(1.00005 2.41405e-05 0)
(1.00006 2.87271e-05 0)
(1.00007 3.31625e-05 0)
(1.00009 3.74987e-05 0)
(1.0001 4.1766e-05 0)
(1.00011 4.58108e-05 0)
(1.00013 4.94356e-05 0)
(1.00014 5.26496e-05 0)
(1.00015 5.56209e-05 0)
(1.00016 5.84844e-05 0)
(1.00017 6.12422e-05 0)
(1.00019 6.37913e-05 0)
(1.0002 6.60621e-05 0)
(1.00021 6.80616e-05 0)
(1.00022 6.9892e-05 0)
(0.999342 0.000379378 0)
(0.998044 0.000441317 0)
(0.996765 0.000524814 0)
(0.995613 0.000604855 0)
(0.994606 0.00066359 0)
(0.993684 0.00070356 0)
(0.992777 0.000739745 0)
(0.991846 0.000768381 0)
(0.990862 0.00078112 0)
(0.989819 0.000784269 0)
(0.988711 0.000788455 0)
(0.987551 0.000800863 0)
(0.986369 0.000820923 0)
(0.98514 0.000839578 0)
(0.983825 0.00085364 0)
(0.982444 0.000866745 0)
(0.981054 0.000875402 0)
(0.979696 0.000875167 0)
(0.978339 0.000865261 0)
(0.976948 0.000846308 0)
(0.975544 0.000824017 0)
(0.974155 0.000800393 0)
(0.972806 0.000773074 0)
(0.971504 0.000750506 0)
(0.970175 0.000738671 0)
(0.968791 0.000732589 0)
(0.967399 0.000736186 0)
(0.966009 0.000752977 0)
(0.964578 0.000775914 0)
(0.963045 0.000805545 0)
(0.961401 0.000838794 0)
(0.959733 0.00086088 0)
(0.958054 0.000870628 0)
(0.956282 0.000871514 0)
(0.954463 0.000857468 0)
(0.952692 0.000835682 0)
(0.950935 0.000819521 0)
(0.949152 0.000809015 0)
(0.947365 0.00081223 0)
(0.945541 0.00083888 0)
(0.943616 0.000864298 0)
(0.941611 0.0008595 0)
(0.939601 0.00083908 0)
(0.937606 0.0008291 0)
(0.935595 0.000825233 0)
(0.933559 0.000820049 0)
(0.931505 0.00082396 0)
(0.929395 0.000834536 0)
(0.927215 0.000831764 0)
(0.925016 0.000818794 0)
(0.922826 0.000819314 0)
(0.920582 0.000831698 0)
(0.918259 0.000829654 0)
(0.915918 0.000813511 0)
(0.913594 0.000811147 0)
(0.911211 0.000828583 0)
(0.908727 0.000835034 0)
(0.906196 0.000815319 0)
(0.903719 0.000795339 0)
(0.901241 0.000806075 0)
(0.898662 0.000834069 0)
(0.895918 0.000839781 0)
(0.89316 0.000806287 0)
(0.890487 0.000766444 0)
(0.887946 0.000762634 0)
(0.885306 0.000804217 0)
(0.882466 0.000856257 0)
(0.879323 0.000869534 0)
(0.876176 0.000815054 0)
(0.873202 0.000697622 0)
(0.870803 0.000548928 0)
(0.868938 0.000400203 0)
(0.867767 0.000278375 0)
(0.866978 0.000186103 0)
(0.866639 0.000118679 0)
(0.866393 7.15142e-05 0)
(0.866378 4.21421e-05 0)
(0.866299 2.42465e-05 0)
(0.866356 1.2871e-05 0)
(0.866308 7.06782e-06 0)
(0.866365 2.85762e-06 0)
(0.86632 1.50568e-06 0)
(0.866373 3.64155e-07 0)
(0.866322 -1.25318e-07 0)
(0.866378 1.00621e-07 0)
(0.866319 -4.16122e-07 0)
(0.866382 3.98391e-08 0)
(0.866316 -1.41609e-07 0)
(0.866382 -1.98161e-07 0)
(0.866316 1.70762e-07 0)
(0.86638 -2.80281e-07 0)
(0.866314 1.87423e-07 0)
(0.866381 -8.91638e-08 0)
(0.866307 5.48817e-08 0)
(0.866382 9.91637e-08 0)
(0.866297 2.90201e-07 0)
(0.866374 -3.41429e-07 0)
(0.866285 1.34284e-06 0)
(0.866344 -8.10771e-07 0)
(0.866243 2.44721e-06 0)
(1.00003 0.000565344 0)
(0.99978 0.000639902 0)
(0.999523 0.00075544 0)
(0.999359 0.000876354 0)
(0.999338 0.000972368 0)
(0.999434 0.00103952 0)
(0.999572 0.0010935 0)
(0.999699 0.00113413 0)
(0.999796 0.00114561 0)
(0.999878 0.00112906 0)
(0.999947 0.0011096 0)
(1 0.00110718 0)
(1.00006 0.00111935 0)
(1.00011 0.00113352 0)
(1.00011 0.00114415 0)
(1.00007 0.00115772 0)
(1.00005 0.00117416 0)
(1.00007 0.00118142 0)
(1.00011 0.00117466 0)
(1.00012 0.00115776 0)
(1.00011 0.00113565 0)
(1.00009 0.00111111 0)
(1.0001 0.00108344 0)
(1.00014 0.00105919 0)
(1.00013 0.00104713 0)
(1.00007 0.00104352 0)
(1.00001 0.00104602 0)
(0.999991 0.00105895 0)
(0.999987 0.00108097 0)
(0.999948 0.00111083 0)
(0.999878 0.00114368 0)
(0.99986 0.00116646 0)
(0.999891 0.00117729 0)
(0.999873 0.00117956 0)
(0.99982 0.00116624 0)
(0.999795 0.00114127 0)
(0.999768 0.00112133 0)
(0.999705 0.00111018 0)
(0.999634 0.00111081 0)
(0.999579 0.00113447 0)
(0.999532 0.0011666 0)
(0.999481 0.00117301 0)
(0.999419 0.00115313 0)
(0.999349 0.00113611 0)
(0.999274 0.00113039 0)
(0.999188 0.00112669 0)
(0.999102 0.00112978 0)
(0.999016 0.00114304 0)
(0.998917 0.00114745 0)
(0.998802 0.00113557 0)
(0.998693 0.00113071 0)
(0.998582 0.00114442 0)
(0.998463 0.00115086 0)
(0.998324 0.00113607 0)
(0.99819 0.00112653 0)
(0.998043 0.00114459 0)
(0.997898 0.00116309 0)
(0.997729 0.00114909 0)
(0.997579 0.00111725 0)
(0.997402 0.00111677 0)
(0.997238 0.00115464 0)
(0.997019 0.00118362 0)
(0.996846 0.00115636 0)
(0.996644 0.00109136 0)
(0.996514 0.0010533 0)
(0.996296 0.00108963 0)
(0.996102 0.00117475 0)
(0.995788 0.00123009 0)
(0.9956 0.00118715 0)
(0.995427 0.00102672 0)
(0.995534 0.000788956 0)
(0.995706 0.000530092 0)
(0.996119 0.000306059 0)
(0.996466 0.000138861 0)
(0.996913 4.28918e-05 0)
(0.997185 -3.20529e-06 0)
(0.99749 -1.98346e-05 0)
(0.997608 -2.09086e-05 0)
(0.99777 -1.71899e-05 0)
(0.997781 -1.07293e-05 0)
(0.997867 -7.16383e-06 0)
(0.997828 -3.32549e-06 0)
(0.997889 -1.66095e-06 0)
(0.997832 -8.38107e-07 0)
(0.99789 2.74961e-07 0)
(0.997826 -1.57096e-07 0)
(0.997886 4.04155e-07 0)
(0.997821 3.80545e-07 0)
(0.997881 -3.6242e-08 0)
(0.997817 7.09008e-07 0)
(0.997877 -1.99938e-07 0)
(0.997811 6.01813e-07 0)
(0.997877 -9.94721e-09 0)
(0.997804 3.99209e-07 0)
(0.997875 1.19684e-07 0)
(0.997797 7.48156e-07 0)
(0.997863 -4.94544e-07 0)
(0.997786 2.06898e-06 0)
(0.997839 -7.56731e-07 0)
(0.997747 3.76929e-06 0)
(1.00004 0.000358399 0)
(0.999835 0.000386675 0)
(0.999609 0.000451702 0)
(0.99945 0.000536877 0)
(0.999415 0.00062439 0)
(0.999493 0.000698281 0)
(0.99962 0.000756886 0)
(0.999733 0.000806828 0)
(0.999807 0.000839493 0)
(0.999876 0.000844395 0)
(0.999962 0.000835716 0)
(1.00005 0.000836483 0)
(1.00014 0.000847219 0)
(1.00021 0.000857315 0)
(1.00023 0.000866528 0)
(1.00023 0.000878462 0)
(1.00025 0.000892029 0)
(1.00029 0.0009046 0)
(1.00035 0.000909611 0)
(1.00039 0.000900429 0)
(1.00041 0.00088464 0)
(1.00042 0.000867316 0)
(1.00046 0.000844585 0)
(1.00052 0.000825566 0)
(1.00055 0.000817649 0)
(1.00052 0.000816149 0)
(1.00049 0.000823652 0)
(1.0005 0.000839802 0)
(1.00055 0.000857506 0)
(1.00056 0.000881328 0)
(1.00055 0.000909123 0)
(1.0006 0.000924528 0)
(1.0007 0.000928554 0)
(1.00076 0.000930538 0)
(1.00077 0.000923845 0)
(1.00082 0.000909402 0)
(1.00087 0.000901492 0)
(1.00088 0.000901438 0)
(1.00089 0.000909325 0)
(1.00093 0.000931979 0)
(1.00099 0.000952245 0)
(1.00105 0.000945795 0)
(1.00109 0.000928041 0)
(1.00113 0.000926047 0)
(1.00116 0.000931176 0)
(1.00119 0.000929553 0)
(1.00123 0.000934309 0)
(1.00128 0.000949043 0)
(1.00132 0.000950901 0)
(1.00135 0.000938366 0)
(1.00138 0.00094055 0)
(1.00143 0.00096068 0)
(1.00148 0.000965199 0)
(1.00151 0.000947301 0)
(1.00154 0.000943737 0)
(1.00158 0.000970401 0)
(1.00164 0.00098832 0)
(1.00168 0.000966426 0)
(1.00172 0.000935173 0)
(1.00174 0.000947051 0)
(1.0018 0.000995208 0)
(1.00186 0.00101753 0)
(1.00195 0.000973149 0)
(1.00197 0.000900868 0)
(1.00202 0.000878991 0)
(1.00202 0.000942327 0)
(1.00216 0.00103924 0)
(1.00227 0.00107486 0)
(1.0025 0.000984801 0)
(1.0026 0.000773072 0)
(1.00276 0.000502542 0)
(1.00273 0.000244737 0)
(1.00276 5.40282e-05 0)
(1.00263 -5.82426e-05 0)
(1.00261 -9.86282e-05 0)
(1.00248 -9.97685e-05 0)
(1.00248 -8.12113e-05 0)
(1.00237 -5.64694e-05 0)
(1.00239 -3.55685e-05 0)
(1.00232 -1.88845e-05 0)
(1.00235 -9.88558e-06 0)
(1.00229 -3.43224e-06 0)
(1.00233 -9.58271e-07 0)
(1.00227 4.61295e-07 0)
(1.00232 1.40811e-06 0)
(1.00225 1.12206e-06 0)
(1.00231 1.32994e-06 0)
(1.00225 1.35702e-06 0)
(1.0023 6.02044e-07 0)
(1.00224 1.42516e-06 0)
(1.0023 2.03263e-07 0)
(1.00223 1.15443e-06 0)
(1.0023 1.76818e-07 0)
(1.00223 9.13148e-07 0)
(1.0023 1.29911e-07 0)
(1.00222 1.09424e-06 0)
(1.00228 -2.36262e-07 0)
(1.00221 1.90567e-06 0)
(1.00226 -2.48588e-08 0)
(1.00217 3.05809e-06 0)
(1.00006 0.000394714 0)
(0.999897 0.000422794 0)
(0.999703 0.00048165 0)
(0.999561 0.000561568 0)
(0.999526 0.000648898 0)
(0.99959 0.000730946 0)
(0.999703 0.000799349 0)
(0.999806 0.000857399 0)
(0.999862 0.000907117 0)
(0.999908 0.000936571 0)
(0.999985 0.000945646 0)
(1.00007 0.000950785 0)
(1.00016 0.000957102 0)
(1.00023 0.000963387 0)
(1.00025 0.000971518 0)
(1.00024 0.000980114 0)
(1.00026 0.000987912 0)
(1.0003 0.000999157 0)
(1.00035 0.00101482 0)
(1.00038 0.00102221 0)
(1.00039 0.00101569 0)
(1.00041 0.00100574 0)
(1.00045 0.000993683 0)
(1.00052 0.000977332 0)
(1.00056 0.000966038 0)
(1.00054 0.000964181 0)
(1.00053 0.000970113 0)
(1.00055 0.000983096 0)
(1.0006 0.000998471 0)
(1.00062 0.00101667 0)
(1.0006 0.00103876 0)
(1.00064 0.00105254 0)
(1.00074 0.001054 0)
(1.00079 0.00105442 0)
(1.0008 0.0010533 0)
(1.00084 0.00104484 0)
(1.00089 0.00103718 0)
(1.00091 0.00103626 0)
(1.00092 0.00103957 0)
(1.00097 0.0010483 0)
(1.00103 0.00106001 0)
(1.00109 0.00106495 0)
(1.00113 0.00106147 0)
(1.00115 0.00105714 0)
(1.00119 0.00105504 0)
(1.00123 0.00105411 0)
(1.00127 0.00105653 0)
(1.00132 0.00106291 0)
(1.00137 0.00106685 0)
(1.0014 0.00106535 0)
(1.00144 0.00106513 0)
(1.00149 0.0010706 0)
(1.00155 0.00107423 0)
(1.00159 0.00107143 0)
(1.00162 0.00107 0)
(1.00166 0.00107698 0)
(1.00173 0.001083 0)
(1.00179 0.00107772 0)
(1.00184 0.00106736 0)
(1.00185 0.00106868 0)
(1.00192 0.00108143 0)
(1.00199 0.00108651 0)
(1.00211 0.00106827 0)
(1.00215 0.00103912 0)
(1.0022 0.00102688 0)
(1.00219 0.00104382 0)
(1.00233 0.00107099 0)
(1.00245 0.00106711 0)
(1.00271 0.000999908 0)
(1.00284 0.000861676 0)
(1.00299 0.000678401 0)
(1.00293 0.000484121 0)
(1.00293 0.000314459 0)
(1.00276 0.000184592 0)
(1.0027 9.43355e-05 0)
(1.00255 3.72018e-05 0)
(1.00254 1.11119e-05 0)
(1.00244 2.0044e-06 0)
(1.00246 -1.07548e-06 0)
(1.00239 7.6915e-07 0)
(1.00243 1.35162e-06 0)
(1.00237 3.26374e-06 0)
(1.00241 3.44123e-06 0)
(1.00235 3.38705e-06 0)
(1.0024 3.40167e-06 0)
(1.00234 2.89681e-06 0)
(1.00239 2.43564e-06 0)
(1.00233 2.57514e-06 0)
(1.00239 1.34675e-06 0)
(1.00232 2.22361e-06 0)
(1.00238 7.41958e-07 0)
(1.00232 1.68884e-06 0)
(1.00238 5.52535e-07 0)
(1.00231 1.30609e-06 0)
(1.00238 3.80129e-07 0)
(1.0023 1.43941e-06 0)
(1.00237 -1.45769e-08 0)
(1.00229 2.0965e-06 0)
(1.00234 3.58935e-07 0)
(1.00225 2.82547e-06 0)
(1.00007 0.000389636 0)
(0.99994 0.000406966 0)
(0.999775 0.00044893 0)
(0.999648 0.000510055 0)
(0.999612 0.000577137 0)
(0.999664 0.000642741 0)
(0.999759 0.000701945 0)
(0.999847 0.000752964 0)
(0.999887 0.000798753 0)
(0.999909 0.000832768 0)
(0.999967 0.000847217 0)
(1.00005 0.000850685 0)
(1.00014 0.000853427 0)
(1.00021 0.000857816 0)
(1.00024 0.000864873 0)
(1.00024 0.000871015 0)
(1.00026 0.000871601 0)
(1.00032 0.000873502 0)
(1.00038 0.000886074 0)
(1.0004 0.000900812 0)
(1.0004 0.000902746 0)
(1.00042 0.00089583 0)
(1.00046 0.000888472 0)
(1.00052 0.000876512 0)
(1.00056 0.000863443 0)
(1.00055 0.000858862 0)
(1.00054 0.000861625 0)
(1.00056 0.000868833 0)
(1.00061 0.000880032 0)
(1.00063 0.000895535 0)
(1.00062 0.000913111 0)
(1.00065 0.000920763 0)
(1.00074 0.000916627 0)
(1.0008 0.000914415 0)
(1.00081 0.000913948 0)
(1.00085 0.000908791 0)
(1.0009 0.000906312 0)
(1.00092 0.000909567 0)
(1.00094 0.000913967 0)
(1.00098 0.000920717 0)
(1.00103 0.0009269 0)
(1.00108 0.000925683 0)
(1.00112 0.000921992 0)
(1.00116 0.000923274 0)
(1.00119 0.000925156 0)
(1.00123 0.000923971 0)
(1.00128 0.000925953 0)
(1.00133 0.000932769 0)
(1.00137 0.000935611 0)
(1.0014 0.000932438 0)
(1.00144 0.000933505 0)
(1.00149 0.000941783 0)
(1.00154 0.000945141 0)
(1.00158 0.000939065 0)
(1.00162 0.000937245 0)
(1.00167 0.000948229 0)
(1.00173 0.000956881 0)
(1.00177 0.000947893 0)
(1.00183 0.000931715 0)
(1.00186 0.000932896 0)
(1.00194 0.000952256 0)
(1.00199 0.000962175 0)
(1.00209 0.000939895 0)
(1.00212 0.000898837 0)
(1.00219 0.000876117 0)
(1.00222 0.00089322 0)
(1.00237 0.000929417 0)
(1.00246 0.000933074 0)
(1.00267 0.000862965 0)
(1.00274 0.000712844 0)
(1.00287 0.000516695 0)
(1.00282 0.000317977 0)
(1.00284 0.000154631 0)
(1.00272 4.20054e-05 0)
(1.00271 -1.73082e-05 0)
(1.00258 -3.74379e-05 0)
(1.00257 -3.53399e-05 0)
(1.00247 -2.51315e-05 0)
(1.00249 -1.55408e-05 0)
(1.00241 -6.31178e-06 0)
(1.00244 -1.30031e-06 0)
(1.00237 2.87976e-06 0)
(1.00242 4.42389e-06 0)
(1.00235 4.90697e-06 0)
(1.0024 4.93505e-06 0)
(1.00234 4.40762e-06 0)
(1.0024 3.6586e-06 0)
(1.00233 3.68085e-06 0)
(1.00239 2.26917e-06 0)
(1.00233 2.91615e-06 0)
(1.00238 1.4637e-06 0)
(1.00232 2.09954e-06 0)
(1.00238 1.08648e-06 0)
(1.00231 1.58316e-06 0)
(1.00238 7.68393e-07 0)
(1.0023 1.57367e-06 0)
(1.00237 4.41268e-07 0)
(1.00229 1.99015e-06 0)
(1.00234 7.92081e-07 0)
(1.00225 2.62474e-06 0)
(1.00007 0.000356102 0)
(0.999969 0.000374899 0)
(0.999832 0.000413647 0)
(0.999721 0.000466291 0)
(0.999689 0.000522741 0)
(0.99974 0.000579131 0)
(0.999831 0.000634476 0)
(0.999915 0.000686105 0)
(0.999948 0.000736306 0)
(0.999955 0.000778961 0)
(0.999994 0.000803347 0)
(1.00007 0.000812775 0)
(1.00016 0.000820094 0)
(1.00023 0.000830818 0)
(1.00025 0.000843116 0)
(1.00024 0.000853141 0)
(1.00025 0.000856642 0)
(1.00031 0.000855836 0)
(1.00038 0.000861127 0)
(1.0004 0.000877559 0)
(1.00039 0.000891338 0)
(1.0004 0.000892761 0)
(1.00044 0.000889177 0)
(1.00051 0.00088404 0)
(1.00056 0.000877779 0)
(1.00056 0.000877006 0)
(1.00056 0.000881737 0)
(1.00059 0.00088492 0)
(1.00065 0.000891525 0)
(1.00067 0.000910093 0)
(1.00065 0.000931461 0)
(1.00067 0.000939675 0)
(1.00076 0.00093709 0)
(1.00081 0.000937361 0)
(1.00082 0.000939118 0)
(1.00086 0.000935639 0)
(1.00091 0.000934384 0)
(1.00093 0.000940207 0)
(1.00095 0.000946163 0)
(1.00099 0.00094942 0)
(1.00104 0.000952372 0)
(1.00109 0.000954611 0)
(1.00113 0.000956301 0)
(1.00116 0.000959161 0)
(1.0012 0.000961666 0)
(1.00123 0.00096217 0)
(1.00128 0.000962838 0)
(1.00133 0.000966146 0)
(1.00137 0.000970727 0)
(1.0014 0.000973849 0)
(1.00144 0.000975536 0)
(1.00149 0.000977788 0)
(1.00154 0.000980288 0)
(1.00158 0.000982086 0)
(1.00163 0.000984033 0)
(1.00167 0.000986891 0)
(1.00173 0.000987818 0)
(1.00178 0.000985161 0)
(1.00184 0.000982283 0)
(1.00187 0.000983561 0)
(1.00193 0.000985763 0)
(1.00198 0.000980746 0)
(1.00208 0.00096538 0)
(1.00212 0.0009477 0)
(1.0022 0.000939783 0)
(1.00222 0.000942181 0)
(1.00235 0.000940522 0)
(1.00243 0.000911757 0)
(1.00262 0.000841836 0)
(1.00269 0.000730255 0)
(1.00283 0.000593122 0)
(1.00278 0.000449956 0)
(1.00281 0.000322031 0)
(1.00269 0.000218882 0)
(1.00267 0.000141562 0)
(1.00254 8.90189e-05 0)
(1.00254 5.35255e-05 0)
(1.00245 3.41984e-05 0)
(1.00247 2.25027e-05 0)
(1.0024 1.74285e-05 0)
(1.00243 1.34636e-05 0)
(1.00237 1.1558e-05 0)
(1.00241 9.81812e-06 0)
(1.00235 8.492e-06 0)
(1.0024 7.37714e-06 0)
(1.00234 6.40797e-06 0)
(1.0024 5.11194e-06 0)
(1.00233 4.92861e-06 0)
(1.00239 3.31074e-06 0)
(1.00233 3.67493e-06 0)
(1.00238 2.24513e-06 0)
(1.00232 2.56078e-06 0)
(1.00238 1.65832e-06 0)
(1.00231 1.87661e-06 0)
(1.00238 1.18356e-06 0)
(1.0023 1.75461e-06 0)
(1.00237 8.16951e-07 0)
(1.00229 2.00131e-06 0)
(1.00234 1.12506e-06 0)
(1.00225 2.44021e-06 0)
(1.00009 0.000356056 0)
(1.00002 0.000378732 0)
(0.9999 0.00041784 0)
(0.999794 0.000464012 0)
(0.999759 0.000510566 0)
(0.999806 0.000554973 0)
(0.999891 0.000597837 0)
(0.999968 0.000638668 0)
(0.999992 0.000681473 0)
(0.999978 0.000721259 0)
(0.999991 0.000745416 0)
(1.00005 0.000755138 0)
(1.00014 0.000760953 0)
(1.00022 0.000770809 0)
(1.00025 0.000785589 0)
(1.00024 0.000801836 0)
(1.00025 0.000814514 0)
(1.00031 0.000817662 0)
(1.00039 0.000818817 0)
(1.00043 0.000832274 0)
(1.00042 0.00085373 0)
(1.00041 0.000867086 0)
(1.00045 0.000866189 0)
(1.00052 0.000860247 0)
(1.00057 0.000858245 0)
(1.00057 0.000859601 0)
(1.00056 0.000863946 0)
(1.00059 0.000865037 0)
(1.00066 0.000859116 0)
(1.00069 0.000866219 0)
(1.00067 0.000888755 0)
(1.00068 0.000896073 0)
(1.00077 0.000886941 0)
(1.00082 0.000886251 0)
(1.00083 0.000890292 0)
(1.00086 0.000885565 0)
(1.00092 0.000881452 0)
(1.00094 0.000886743 0)
(1.00096 0.000894124 0)
(1.00099 0.00089731 0)
(1.00105 0.00089773 0)
(1.00109 0.000896833 0)
(1.00113 0.00089582 0)
(1.00117 0.000897883 0)
(1.0012 0.000902879 0)
(1.00123 0.00090539 0)
(1.00128 0.000903987 0)
(1.00133 0.00090433 0)
(1.00137 0.000908327 0)
(1.0014 0.000911386 0)
(1.00144 0.000912176 0)
(1.00149 0.000914 0)
(1.00154 0.000916289 0)
(1.00158 0.000916153 0)
(1.00162 0.000915693 0)
(1.00167 0.000918659 0)
(1.00173 0.000921442 0)
(1.00177 0.000917932 0)
(1.00183 0.000909921 0)
(1.00186 0.00090604 0)
(1.00194 0.000908454 0)
(1.00198 0.000907883 0)
(1.00207 0.00089468 0)
(1.0021 0.000871507 0)
(1.00219 0.000851547 0)
(1.00222 0.000843303 0)
(1.00235 0.000839349 0)
(1.00241 0.000816713 0)
(1.00258 0.000755185 0)
(1.00261 0.000648047 0)
(1.00273 0.00050995 0)
(1.00269 0.000364263 0)
(1.00273 0.000234027 0)
(1.00263 0.000133411 0)
(1.00265 6.67924e-05 0)
(1.00254 3.03329e-05 0)
(1.00255 1.32524e-05 0)
(1.00246 8.99397e-06 0)
(1.00248 8.52552e-06 0)
(1.00241 1.07683e-05 0)
(1.00244 1.15713e-05 0)
(1.00237 1.21519e-05 0)
(1.00242 1.16044e-05 0)
(1.00235 1.05518e-05 0)
(1.0024 9.34785e-06 0)
(1.00234 8.19191e-06 0)
(1.00239 6.63513e-06 0)
(1.00233 6.15702e-06 0)
(1.00239 4.45884e-06 0)
(1.00233 4.43389e-06 0)
(1.00238 3.09889e-06 0)
(1.00232 3.04358e-06 0)
(1.00238 2.24681e-06 0)
(1.00231 2.21719e-06 0)
(1.00238 1.59382e-06 0)
(1.0023 1.96001e-06 0)
(1.00237 1.18298e-06 0)
(1.00229 2.03917e-06 0)
(1.00234 1.3914e-06 0)
(1.00226 2.31676e-06 0)
(1.00011 0.000349704 0)
(1.00006 0.000367098 0)
(0.99996 0.000401208 0)
(0.999857 0.000443487 0)
(0.999818 0.000484572 0)
(0.99986 0.000518727 0)
(0.999943 0.000550416 0)
(1.00002 0.000581769 0)
(1.00005 0.000618547 0)
(1.00003 0.000661847 0)
(1.00003 0.000696026 0)
(1.00007 0.000716651 0)
(1.00016 0.00072735 0)
(1.00024 0.000735312 0)
(1.00027 0.000750005 0)
(1.00026 0.000769653 0)
(1.00025 0.000787441 0)
(1.0003 0.000791901 0)
(1.00038 0.000784427 0)
(1.00043 0.000785138 0)
(1.00042 0.000799479 0)
(1.0004 0.000815465 0)
(1.00043 0.000819753 0)
(1.0005 0.000811822 0)
(1.00056 0.000808805 0)
(1.00058 0.000814214 0)
(1.00057 0.000821539 0)
(1.0006 0.000829064 0)
(1.00066 0.000823645 0)
(1.00072 0.000819767 0)
(1.0007 0.000843067 0)
(1.00069 0.000861276 0)
(1.00077 0.000851949 0)
(1.00083 0.000848742 0)
(1.00084 0.000858283 0)
(1.00087 0.00085696 0)
(1.00093 0.000849797 0)
(1.00096 0.000852549 0)
(1.00097 0.000861763 0)
(1.001 0.000867355 0)
(1.00105 0.000867691 0)
(1.0011 0.000867642 0)
(1.00113 0.00086837 0)
(1.00117 0.000868738 0)
(1.0012 0.00087273 0)
(1.00123 0.000879686 0)
(1.00127 0.00088084 0)
(1.00133 0.000877335 0)
(1.00137 0.000879468 0)
(1.0014 0.000886756 0)
(1.00144 0.000890346 0)
(1.00149 0.000889874 0)
(1.00154 0.000890946 0)
(1.00158 0.000894277 0)
(1.00162 0.000896908 0)
(1.00167 0.000897817 0)
(1.00172 0.000897114 0)
(1.00177 0.000895022 0)
(1.00183 0.000892752 0)
(1.00186 0.000891306 0)
(1.00193 0.000888569 0)
(1.00197 0.000880699 0)
(1.00206 0.000867022 0)
(1.0021 0.000851371 0)
(1.00219 0.000838817 0)
(1.00221 0.000828 0)
(1.00233 0.000810511 0)
(1.00238 0.000774005 0)
(1.00253 0.000711524 0)
(1.00256 0.000623798 0)
(1.00268 0.000520579 0)
(1.00264 0.000413935 0)
(1.0027 0.00031575 0)
(1.0026 0.00023316 0)
(1.00262 0.000167539 0)
(1.00252 0.000119041 0)
(1.00253 8.33605e-05 0)
(1.00244 5.97072e-05 0)
(1.00247 4.31018e-05 0)
(1.0024 3.29112e-05 0)
(1.00243 2.55456e-05 0)
(1.00237 2.08093e-05 0)
(1.00241 1.72562e-05 0)
(1.00235 1.44463e-05 0)
(1.0024 1.21652e-05 0)
(1.00234 1.03807e-05 0)
(1.00239 8.39205e-06 0)
(1.00233 7.49401e-06 0)
(1.00239 5.69868e-06 0)
(1.00232 5.26307e-06 0)
(1.00238 3.98058e-06 0)
(1.00232 3.58902e-06 0)
(1.00238 2.84149e-06 0)
(1.00231 2.60352e-06 0)
(1.00238 1.99619e-06 0)
(1.0023 2.19856e-06 0)
(1.00237 1.51692e-06 0)
(1.00229 2.10176e-06 0)
(1.00234 1.61469e-06 0)
(1.00226 2.22665e-06 0)
(1.00012 0.000349619 0)
(1.0001 0.000359109 0)
(1.00003 0.000388081 0)
(0.999932 0.000430826 0)
(0.999879 0.000473192 0)
(0.999906 0.00050355 0)
(0.999984 0.000527038 0)
(1.00007 0.000548236 0)
(1.00011 0.000573586 0)
(1.00008 0.000610614 0)
(1.00006 0.000646108 0)
(1.00008 0.000668909 0)
(1.00015 0.000678021 0)
(1.00023 0.000678394 0)
(1.00028 0.000686194 0)
(1.00027 0.00070447 0)
(1.00026 0.000725923 0)