/*--------------------------------*- C++ -*----------------------------------*\
| =========                 |                                                 |
| \\      /  F ield         | OpenFOAM: The Open Source CFD Toolbox           |
|  \\    /   O peration     | Version:  v2012                                 |
|   \\  /    A nd           | Website:  www.openfoam.com                      |
|    \\/     M anipulation  |                                                 |
\*---------------------------------------------------------------------------*/
FoamFile
{
    version     2.0;
    format      ascii;
    class       volScalarField;
    location    "0.5";
    object      p;
}
// * * * * * * * * * * * * * * * * * * * * * * * * * * * * * * * * * * * * * //

dimensions      [0 2 -2 0 0 0 0];


internalField   nonuniform List<scalar> 
2400
(
3.23707e-11
1.09865e-05
3.9364e-05
7.48012e-05
0.000114159
0.000147532
0.000174082
0.000180143
0.000163306
0.000127443
7.48984e-05
-4.55034e-06
-0.0001371
-0.000359578
-0.000667
-0.00100718
-0.00130347
-0.00148298
-0.00147626
-0.00120805
7.6965e-06
1.54377e-05
3.58597e-05
6.67542e-05
0.000108803
0.000155224
0.000192768
0.000215682
0.000221416
0.000195525
0.000111622
-4.73778e-05
-0.000280302
-0.000562017
-0.000862586
-0.00115275
-0.00139214
-0.00153301
-0.00151651
-0.0012681
9.70826e-06
1.7553e-05
3.65751e-05
6.52444e-05
0.000107057
0.000160613
0.00021067
0.000233182
0.000218496
0.000154246
3.2763e-05
-0.000145401
-0.00036907
-0.000621795
-0.00089036
-0.00114919
-0.00136264
-0.00148693
-0.00146698
-0.00123371
1.08836e-05
2.02784e-05
4.23129e-05
7.18253e-05
0.000105803
0.000150612
0.000201083
0.000233167
0.000216914
0.000139966
4.77174e-06
-0.000180187
-0.000404483
-0.000656131
-0.00091913
-0.00117058
-0.00137572
-0.00149399
-0.00147382
-0.00125009
1.2384e-05
2.26118e-05
4.46446e-05
7.46397e-05
0.000107005
0.000142035
0.000182759
0.000209879
0.000192247
0.000111473
-2.964e-05
-0.000219658
-0.000445841
-0.000693214
-0.000944611
-0.00117837
-0.00136479
-0.00146789
-0.00144134
-0.00122599
1.36389e-05
2.43405e-05
4.5513e-05
7.45994e-05
0.000106545
0.000135743
0.000157959
0.000164872
0.000140131
6.73595e-05
-6.21883e-05
-0.000243425
-0.000462477
-0.000699691
-0.000936165
-0.00115147
-0.00131903
-0.00140733
-0.00137574
-0.00117394
1.43142e-05
2.47334e-05
4.48773e-05
7.0992e-05
9.77448e-05
0.000119209
0.00012849
0.000118516
8.22426e-05
1.16454e-05
-0.000100544
-0.000258852
-0.000456402
-0.000676927
-0.000900232
-0.00110345
-0.00125938
-0.00133948
-0.00130855
-0.00112398
1.39467e-05
2.38517e-05
4.12136e-05
6.27352e-05
8.21435e-05
9.42565e-05
9.39705e-05
7.3413e-05
2.82262e-05
-4.35054e-05
-0.000144293
-0.000277895
-0.000446085
-0.000639845
-0.00084294
-0.00103343
-0.00118256
-0.00126098
-0.00123705
-0.00107379
1.20333e-05
2.05957e-05
3.39063e-05
4.9269e-05
6.09855e-05
6.38084e-05
5.46709e-05
2.80676e-05
-2.07437e-05
-9.28261e-05
-0.000185896
-0.000301165
-0.000440943
-0.000603464
-0.000777971
-0.000947
-0.00108518
-0.00116364
-0.00115176
-0.0010165
7.76001e-06
1.42287e-05
2.29539e-05
3.14427e-05
3.55234e-05
3.02048e-05
1.34333e-05
-1.74357e-05
-6.66592e-05
-0.000135698
-0.000221878
-0.000323115
-0.0004402
-0.000571973
-0.000714038
-0.000855207
-0.000975318
-0.00105011
-0.00105185
-0.000949016
5.57677e-07
4.65164e-06
8.25085e-06
9.85911e-06
6.56411e-06
-5.44658e-06
-2.77758e-05
-6.18518e-05
-0.0001099
-0.000173615
-0.000251252
-0.000340101
-0.000439167
-0.000546809
-0.000659728
-0.000772215
-0.000869463
-0.000932372
-0.000939681
-0.000865462
-9.91158e-06
-8.64527e-06
-9.99301e-06
-1.4415e-05
-2.41486e-05
-4.17358e-05
-6.81242e-05
-0.000103879
-0.000149903
-0.000207482
-0.000275624
-0.000352104
-0.000435916
-0.000524892
-0.000614739
-0.000701883
-0.000776453
-0.000823644
-0.000828943
-0.000774096
-2.4044e-05
-2.52113e-05
-3.08548e-05
-4.07289e-05
-5.56493e-05
-7.74126e-05
-0.000106402
-0.000142548
-0.000186005
-0.000237553
-0.00029682
-0.000361625
-0.000430852
-0.000503736
-0.000575489
-0.000642428
-0.000698645
-0.000732489
-0.000733374
-0.000690621
-4.14106e-05
-4.47173e-05
-5.39406e-05
-6.80908e-05
-8.68723e-05
-0.000111483
-0.000141855
-0.000177499
-0.000217999
-0.000263767
-0.000314779
-0.000369463
-0.000425935
-0.000484052
-0.00054072
-0.000591727
-0.000633499
-0.000658146
-0.000657224
-0.000624067
-6.15308e-05
-6.66295e-05
-7.82853e-05
-9.54811e-05
-0.000117058
-0.000143286
-0.000173975
-0.000208408
-0.000245875
-0.000286449
-0.000329898
-0.000375485
-0.000421307
-0.000466798
-0.000510837
-0.00054994
-0.00058123
-0.000600066
-0.000599986
-0.000576092
-8.3397e-05
-8.9848e-05
-0.000103163
-0.000122191
-0.000145382
-0.000172223
-0.000202392
-0.000235291
-0.000269856
-0.000305776
-0.000342781
-0.000380481
-0.000417537
-0.000453135
-0.000486958
-0.000517128
-0.000541125
-0.000556171
-0.000557903
-0.0005425
-0.000105827
-0.000113222
-0.000127522
-0.000147382
-0.000171246
-0.00019812
-0.000227289
-0.000258211
-0.000289882
-0.000321868
-0.000353782
-0.000385436
-0.000415995
-0.000444505
-0.000470535
-0.000493355
-0.000511484
-0.000523264
-0.000526176
-0.000517654
-0.000127362
-0.000135287
-0.00015002
-0.000170081
-0.000193951
-0.000220471
-0.000248581
-0.000277689
-0.000306835
-0.000335507
-0.000363292
-0.000390133
-0.000415667
-0.000439405
-0.000460893
-0.000479768
-0.000495014
-0.000505398
-0.000509438
-0.000505469
-0.000146623
-0.000154533
-0.000169111
-0.000188804
-0.000212096
-0.000237854
-0.000264885
-0.000292531
-0.000319879
-0.000346385
-0.000371488
-0.000395012
-0.000416671
-0.000436201
-0.000453266
-0.000467758
-0.000479398
-0.000487793
-0.00049234
-0.000492259
-0.000163647
-0.000172272
-0.000187293
-0.000207172
-0.000230393
-0.000255878
-0.000282403
-0.000309237
-0.00033547
-0.000360562
-0.000383903
-0.000405263
-0.00042437
-0.0004411
-0.000455254
-0.000466812
-0.000475795
-0.000482258
-0.00048631
-0.000487953
-0.000694291
-0.000102741
0.000402808
0.000754706
0.000935275
0.000956214
0.000852639
0.000669377
0.000450354
0.000231931
4.03556e-05
-0.000108845
-0.000209834
-0.000266595
-0.000290911
-0.000297009
-0.000298721
-0.000306814
-0.000326828
-0.000358638
-0.000397461
-0.000436533
-0.000471644
-0.000505381
-0.000545237
-0.000595683
-0.000652091
-0.00070122
-0.000731769
-0.00074379
-0.000754458
-0.000785899
-0.000839177
-0.00089344
-0.000927202
-0.00093819
-0.000952134
-0.000994497
-0.00105692
-0.00110882
-0.00113258
-0.00114552
-0.00117763
-0.00122972
-0.00127679
-0.00130586
-0.00133063
-0.00137383
-0.00142975
-0.00146885
-0.00149315
-0.00153262
-0.00158525
-0.00162731
-0.0016648
-0.00171313
-0.00176303
-0.00180238
-0.00183856
-0.00188066
-0.00192917
-0.00198508
-0.0020451
-0.00209826
-0.00214144
-0.00218702
-0.00223961
-0.00229054
-0.00233915
-0.00239409
-0.00245417
-0.00251065
-0.00256774
-0.00263217
-0.00269727
-0.00275499
-0.00281308
-0.00288308
-0.00295694
-0.00302087
-0.00307795
-0.00314692
-0.00323439
-0.00332319
-0.00339494
-0.00345325
-0.00352212
-0.00362397
-0.00375577
-0.00389549
-0.00401506
-0.00409904
-0.00414787
-0.00417022
-0.00418865
-0.00420659
-0.00422904
-0.00425854
-0.00429221
-0.00432765
-0.000798656
-0.000233466
0.00027348
0.000644369
0.000852522
0.000900685
0.000818325
0.000649345
0.000439491
0.000227126
3.92864e-05
-0.00010864
-0.000210793
-0.000270371
-0.000297891
-0.000306377
-0.000309002
-0.000316523
-0.000334896
-0.00036461
-0.00040148
-0.000439325
-0.000474056
-0.000507873
-0.000547936
-0.00059863
-0.000655365
-0.000704716
-0.000735133
-0.000746611
-0.00075663
-0.000787708
-0.000840988
-0.000895708
-0.000930017
-0.000940677
-0.000953652
-0.000995641
-0.00105851
-0.00111088
-0.00113456
-0.00114713
-0.001179
-0.00123106
-0.00127838
-0.00130762
-0.00133181
-0.00137456
-0.00143128
-0.00147092
-0.00149439
-0.00153339
-0.00158653
-0.00162858
-0.00166554
-0.00171395
-0.00176429
-0.00180375
-0.00183995
-0.0018821
-0.00193046
-0.001986
-0.00204576
-0.00209878
-0.00214196
-0.00218772
-0.00224065
-0.00229181
-0.0023404
-0.00239522
-0.00245518
-0.00251161
-0.00256862
-0.00263302
-0.00269801
-0.00275571
-0.00281384
-0.00288386
-0.00295768
-0.00302157
-0.00307888
-0.00314774
-0.00323502
-0.00332356
-0.0033951
-0.00345398
-0.00352328
-0.00362449
-0.00375458
-0.00389203
-0.00400978
-0.00409252
-0.00414128
-0.00416999
-0.00418731
-0.00420566
-0.00422962
-0.00425939
-0.00429387
-0.00432966
-0.000794351
-0.000259951
0.000226556
0.000588615
0.000797943
0.000855053
0.000785648
0.000630336
0.000432992
0.000231281
5.1795e-05
-9.11551e-05
-0.000192801
-0.000256095
-0.000289797
-0.000304548
-0.000311742
-0.000321314
-0.000339382
-0.00036707
-0.000401163
-0.000436678
-0.000470161
-0.000503937
-0.000544551
-0.000596092
-0.000654005
-0.000704258
-0.000734998
-0.000746049
-0.000755189
-0.000785967
-0.000839569
-0.000895133
-0.000930296
-0.000940477
-0.000952333
-0.000994153
-0.00105793
-0.00111115
-0.00113465
-0.00114663
-0.00117861
-0.00123085
-0.0012784
-0.00130762
-0.00133086
-0.00137372
-0.00143214
-0.00147191
-0.00149448
-0.00153412
-0.00158738
-0.00162831
-0.00166515
-0.00171362
-0.00176304
-0.00180284
-0.00184083
-0.00188486
-0.00193445
-0.00198862
-0.00204436
-0.0020955
-0.00214054
-0.00218763
-0.00224047
-0.00229298
-0.00234322
-0.00239692
-0.00245521
-0.00251294
-0.00257138
-0.00263365
-0.00269636
-0.00275585
-0.00281689
-0.00288543
-0.00295527
-0.00301949
-0.00308133
-0.00315267
-0.00323593
-0.0033183
-0.00338995
-0.00345479
-0.00353018
-0.00363023
-0.00375151
-0.0038762
-0.00398398
-0.00406368
-0.00411705
-0.00415057
-0.00417621
-0.00419905
-0.00422567
-0.00425721
-0.00429249
-0.00432891
-0.000830767
-0.000321019
0.000144405
0.000492764
0.0006968
0.000757243
0.000698635
0.000559219
0.00038021
0.000196651
3.32369e-05
-9.73882e-05
-0.000192049
-0.00025423
-0.000291795
-0.000312861
-0.000326246
-0.000339948
-0.000359331
-0.000385836
-0.000416733
-0.000448204
-0.000477985
-0.000509386
-0.000549142
-0.000600615
-0.000659239
-0.000710544
-0.000741924
-0.000753078
-0.000761356
-0.00079097
-0.000844404
-0.000900347
-0.000935627
-0.000945336
-0.000956004
-0.000997093
-0.00106143
-0.00111544
-0.00113893
-0.00115021
-0.0011817
-0.00123422
-0.00128194
-0.00131063
-0.00133338
-0.00137636
-0.00143545
-0.00147561
-0.00149754
-0.00153638
-0.00158957
-0.00163053
-0.00166699
-0.00171538
-0.00176546
-0.00180603
-0.0018444
-0.00188841
-0.0019372
-0.00198969
-0.00204466
-0.00209653
-0.00214218
-0.00218922
-0.00224269
-0.00229608
-0.00234587
-0.00239859
-0.00245732
-0.00251573
-0.00257316
-0.00263412
-0.00269769
-0.0027586
-0.00281904
-0.00288535
-0.00295536
-0.00302208
-0.00308534
-0.00315458
-0.00323398
-0.00331606
-0.00339135
-0.00345981
-0.0035353
-0.00362998
-0.00374332
-0.00386221
-0.00396948
-0.00405214
-0.00410756
-0.00414776
-0.00417252
-0.00419745
-0.00422599
-0.0042583
-0.00429416
-0.00433086
-0.000830039
-0.000351338
8.51096e-05
0.000411487
0.000602916
0.000661179
0.000610074
0.0004856
0.000325785
0.000162531
1.78467e-05
-9.74063e-05
-0.000181461
-0.000238963
-0.00027771
-0.000304384
-0.000325095
-0.000345197
-0.000368705
-0.000396702
-0.000426666
-0.00045523
-0.000480869
-0.000508585
-0.000546288
-0.000596935
-0.000655614
-0.000707792
-0.000740701
-0.000753521
-0.000762315
-0.000791152
-0.000844016
-0.000900055
-0.000935473
-0.000944956
-0.000954864
-0.000994984
-0.00105942
-0.00111481
-0.0011395
-0.00115063
-0.00118113
-0.00123308
-0.00128136
-0.00131057
-0.00133243
-0.0013748
-0.00143527
-0.00147649
-0.00149753
-0.00153594
-0.0015895
-0.00163023
-0.00166662
-0.00171533
-0.00176496
-0.00180515
-0.00184414
-0.00188909
-0.00193882
-0.00199133
-0.00204453
-0.00209471
-0.00214098
-0.0021891
-0.00224245
-0.00229615
-0.00234719
-0.00240014
-0.00245763
-0.00251585
-0.00257438
-0.00263537
-0.00269736
-0.00275778
-0.00281968
-0.00288678
-0.00295549
-0.00302067
-0.00308481
-0.00315562
-0.00323493
-0.00331508
-0.00338841
-0.00345752
-0.00353513
-0.00362959
-0.00373923
-0.00385121
-0.00394964
-0.00402621
-0.00408263
-0.00412327
-0.00415745
-0.00418872
-0.00422027
-0.00425473
-0.00429169
-0.00432912
-0.000811149
-0.000374965
2.22232e-05
0.000318831
0.000492278
0.000545539
0.000501069
0.000391804
0.000252027
0.000110009
-1.49306e-05
-0.000113831
-0.000185817
-0.00023635
-0.000273653
-0.000303633
-0.000330615
-0.000357177
-0.000385447
-0.000415854
-0.000445811
-0.000472376
-0.000494257
-0.000517549
-0.000552166
-0.000601396
-0.000659307
-0.000711148
-0.000744486
-0.000758595
-0.000768825
-0.00079809
-0.000850508
-0.000906195
-0.000941333
-0.000950032
-0.000958677
-0.000997578
-0.00106166
-0.00111803
-0.00114425
-0.00115606
-0.00118555
-0.00123581
-0.00128414
-0.00131453
-0.00133571
-0.00137668
-0.00143818
-0.00148119
-0.00150158
-0.00153831
-0.00159169
-0.00163294
-0.00166892
-0.0017172
-0.00176749
-0.00180849
-0.00184765
-0.00189289
-0.00194258
-0.00199343
-0.00204501
-0.00209582
-0.00214321
-0.00219099
-0.00224435
-0.00229935
-0.00235063
-0.00240233
-0.00245962
-0.00251906
-0.00257731
-0.00263644
-0.00269816
-0.00276048
-0.00282299
-0.00288798
-0.00295492
-0.00302178
-0.0030887
-0.00315926
-0.00323498
-0.00331201
-0.00338672
-0.00346059
-0.00354025
-0.00363107
-0.00373253
-0.0038361
-0.00393169
-0.00401165
-0.00407287
-0.00411794
-0.00415806
-0.00418686
-0.00421995
-0.00425527
-0.0042928
-0.00433042
-0.000796099
-0.000402942
-4.52977e-05
0.000220934
0.000375604
0.000422742
0.000383839
0.000288704
0.000168294
4.73153e-05
-5.77465e-05
-0.000139847
-0.000199131
-0.000241069
-0.000274277
-0.000304394
-0.000335
-0.000367107
-0.000400404
-0.000433961
-0.000464472
-0.000489279
-0.000507625
-0.000526132
-0.000556733
-0.000604433
-0.000662604
-0.000714276
-0.000746582
-0.000759968
-0.000770336
-0.000800904
-0.00085472
-0.000910811
-0.000945943
-0.000953409
-0.000959584
-0.000997157
-0.00106142
-0.00111853
-0.00114562
-0.00115802
-0.00118799
-0.00123773
-0.00128455
-0.00131515
-0.0013368
-0.00137626
-0.00143785
-0.00148313
-0.0015035
-0.00153873
-0.00159197
-0.00163347
-0.00166929
-0.00171782
-0.00176844
-0.00180929
-0.00184808
-0.00189312
-0.00194333
-0.00199468
-0.00204577
-0.00209564
-0.00214306
-0.00219143
-0.00224488
-0.00229982
-0.00235156
-0.00240376
-0.00246076
-0.00251951
-0.00257777
-0.00263737
-0.00269916
-0.00276068
-0.00282277
-0.00288806
-0.00295564
-0.00302256
-0.00308861
-0.0031584
-0.00323364
-0.0033111
-0.00338656
-0.00345997
-0.00353799
-0.00362642
-0.00372444
-0.00382429
-0.00391543
-0.00399053
-0.00404896
-0.00409552
-0.00413555
-0.00417556
-0.00421247
-0.00425017
-0.00428901
-0.00432748
-0.000781962
-0.000431344
-0.000111485
0.00012661
0.000264338
0.000305617
0.000270963
0.000187552
8.3149e-05
-1.99839e-05
-0.000107832
-0.000174759
-0.000221937
-0.000254733
-0.000281569
-0.000308677
-0.000339668
-0.000375429
-0.000413756
-0.00045157
-0.000484291
-0.000508319
-0.000523459
-0.000536916
-0.000562149
-0.000607445
-0.000666995
-0.000720793
-0.000753196
-0.000764402
-0.000771835
-0.000801667
-0.000857982
-0.000916842
-0.000953426
-0.00096007
-0.000962469
-0.000997038
-0.00106229
-0.00112169
-0.00114883
-0.00115963
-0.00118996
-0.00124204
-0.00128856
-0.00131692
-0.00133851
-0.001378
-0.00143896
-0.00148576
-0.00150738
-0.00154141
-0.00159389
-0.00163552
-0.00167067
-0.00171867
-0.00177014
-0.00181228
-0.00185133
-0.00189579
-0.00194582
-0.00199688
-0.00204694
-0.00209652
-0.00214472
-0.00219317
-0.00224621
-0.00230203
-0.00235465
-0.00240613
-0.00246229
-0.00252181
-0.00258072
-0.00263921
-0.00269982
-0.00276208
-0.00282548
-0.00289025
-0.00295605
-0.00302246
-0.0030901
-0.00316114
-0.00323508
-0.00330995
-0.00338402
-0.00345888
-0.00353904
-0.00362605
-0.00371855
-0.00381128
-0.00389758
-0.00397366
-0.00403779
-0.00409031
-0.00413308
-0.00417443
-0.00421125
-0.00424985
-0.00428925
-0.00432785
-0.000766268
-0.000461255
-0.000180097
3.1294e-05
0.000155403
0.000194098
0.000164718
9.19045e-05
6.97839e-07
-8.85638e-05
-0.000163241
-0.000218402
-0.00025523
-0.000279181
-0.000298483
-0.000320032
-0.000347939
-0.000383811
-0.000425581
-0.000468043
-0.00050479
-0.000530328
-0.000543443
-0.000551917
-0.0005705
-0.00061132
-0.000671676
-0.000729296
-0.000764042
-0.00077362
-0.000775917
-0.000801365
-0.000858361
-0.000921935
-0.00096277
-0.000970143
-0.000968306
-0.000997011
-0.00106165
-0.0011256
-0.00115471
-0.00116208
-0.00118983
-0.00124489
-0.00129482
-0.00132158
-0.00133976
-0.0013785
-0.00144047
-0.00148832
-0.00150992
-0.0015434
-0.00159655
-0.00163851
-0.00167224
-0.00171962
-0.00177206
-0.00181488
-0.001854
-0.00189764
-0.00194646
-0.00199769
-0.00204893
-0.0020985
-0.00214583
-0.00219427
-0.00224782
-0.00230376
-0.00235621
-0.00240784
-0.00246423
-0.00252342
-0.00258173
-0.00264017
-0.00270138
-0.00276367
-0.00282615
-0.00289018
-0.00295636
-0.00302388
-0.00309146
-0.0031609
-0.00323323
-0.00330791
-0.00338335
-0.00345892
-0.00353716
-0.0036204
-0.00370897
-0.0037985
-0.00388272
-0.00395653
-0.00401758
-0.00406853
-0.00411365
-0.00415843
-0.00420167
-0.00424309
-0.00428399
-0.00432355
-0.000745739
-0.000491132
-0.000251696
-6.74743e-05
4.4524e-05
8.41055e-05
6.37818e-05
3.70921e-06
-7.43846e-05
-0.000151957
-0.000216903
-0.000264698
-0.000295429
-0.000313321
-0.000326077
-0.000340866
-0.000362738
-0.000394656
-0.000436138
-0.000481884
-0.00052353
-0.000553351
-0.000567311
-0.00057204
-0.000583393
-0.000616397
-0.000673988
-0.00073568
-0.000776148
-0.000787657
-0.000785353
-0.00080264
-0.000855668
-0.000923079
-0.000971477
-0.000983277
-0.000978577
-0.000998948
-0.00105867
-0.0011273
-0.00116264
-0.00116759
-0.00118901
-0.001244
-0.00130018
-0.00132991
-0.00134311
-0.00137694
-0.00144085
-0.00149234
-0.00151336
-0.00154501
-0.0015993
-0.00164246
-0.00167394
-0.00171904
-0.00177251
-0.00181738
-0.00185734
-0.0019008
-0.00194857
-0.00199865
-0.00204998
-0.00210047
-0.00214793
-0.0021954
-0.00224838
-0.00230525
-0.0023588
-0.00241003
-0.00246537
-0.00252471
-0.00258391
-0.00264218
-0.00270229
-0.00276421
-0.00282749
-0.00289203
-0.00295747
-0.00302385
-0.00309119
-0.0031614
-0.00323395
-0.0033076
-0.00338138
-0.00345591
-0.00353423
-0.0036168
-0.00370221
-0.00378677
-0.00386632
-0.00393896
-0.00400379
-0.00406109
-0.00411171
-0.00415635
-0.00420031
-0.0042417
-0.00428315
-0.00432277
-0.000710006
-0.00050944
-0.000316755
-0.000164756
-6.7596e-05
-2.72278e-05
-3.61695e-05
-8.02924e-05
-0.000142496
-0.000207796
-0.000264619
-0.000307729
-0.000336714
-0.000353194
-0.000363018
-0.000372195
-0.00038681
-0.000411267
-0.000447583
-0.000493063
-0.000538519
-0.000574498
-0.000593234
-0.000597307
-0.000602379
-0.000625206
-0.000675263
-0.000738444
-0.000786618
-0.000804996
-0.000801891
-0.000809308
-0.000852794
-0.000919756
-0.000976855
-0.000997844
-0.00099343
-0.00100476
-0.00105488
-0.00112479
-0.00117037
-0.0011779
-0.00119098
-0.00124071
-0.00130185
-0.00133974
-0.00135186
-0.00137604
-0.0014379
-0.0014964
-0.00151838
-0.00154524
-0.00160046
-0.00164748
-0.00167774
-0.0017196
-0.00177343
-0.00182022
-0.0018606
-0.00190358
-0.00195037
-0.00199915
-0.00205053
-0.00210265
-0.0021507
-0.00219711
-0.00224951
-0.0023071
-0.00236113
-0.00241207
-0.00246731
-0.00252676
-0.00258562
-0.00264337
-0.00270371
-0.00276612
-0.00282904
-0.00289258
-0.0029576
-0.00302472
-0.00309263
-0.00316205
-0.00323284
-0.0033053
-0.00337951
-0.00345468
-0.00353194
-0.00361116
-0.00369256
-0.0037743
-0.00385264
-0.00392475
-0.00398816
-0.00404321
-0.00409308
-0.00413983
-0.00418692
-0.00423295
-0.00427633
-0.00431694
-0.000659244
-0.000510214
-0.0003655
-0.000249486
-0.000172444
-0.000136101
-0.000135879
-0.000164015
-0.000208943
-0.000259488
-0.000306676
-0.000345083
-0.000373779
-0.000392357
-0.00040376
-0.000411662
-0.000420565
-0.000436603
-0.00046378
-0.000503839
-0.000549791
-0.000591217
-0.000617888
-0.000625861
-0.000627634
-0.000640422
-0.000678792
-0.000738353
-0.000792923
-0.000821775
-0.000823567
-0.000823386
-0.000853527
-0.000913995
-0.000976822
-0.00101034
-0.00101147
-0.00101588
-0.00105388
-0.00111948
-0.00117479
-0.00119106
-0.00119809
-0.00123799
-0.00129925
-0.00134642
-0.00136399
-0.00137916
-0.00143234
-0.00149823
-0.00152707
-0.00154814
-0.0016002
-0.00165198
-0.00168289
-0.00172025
-0.00177276
-0.00182198
-0.00186386
-0.00190666
-0.00195331
-0.00200142
-0.00205142
-0.00210399
-0.00215397
-0.0022001
-0.00225036
-0.00230791
-0.00236379
-0.00241503
-0.0024689
-0.00252783
-0.00258754
-0.00264571
-0.00270538
-0.00276702
-0.00282992
-0.00289395
-0.00295901
-0.00302542
-0.00309245
-0.00316148
-0.00323238
-0.00330466
-0.00337779
-0.00345132
-0.00352719
-0.00360526
-0.00368486
-0.00376355
-0.00383811
-0.00390812
-0.00397267
-0.00403236
-0.00408781
-0.00413877
-0.00418635
-0.00423164
-0.00427462
-0.00431506
-0.000606125
-0.000499046
-0.00039611
-0.000314362
-0.00026
-0.000232891
-0.000229625
-0.000245867
-0.000275576
-0.000311403
-0.00034733
-0.000378839
-0.00040549
-0.000426395
-0.000441501
-0.000452495
-0.000460565
-0.000470682
-0.000488367
-0.00051856
-0.000559847
-0.000603093
-0.000637568
-0.000653753
-0.00065707
-0.000663206
-0.000688565
-0.000738672
-0.000794852
-0.000833876
-0.000845759
-0.000844082
-0.000861622
-0.000910491
-0.000972766
-0.00101774
-0.00102952
-0.00103176
-0.00105832
-0.00111455
-0.00117419
-0.00120281
-0.00121001
-0.00123892
-0.001295
-0.00134863
-0.00137667
-0.00138932
-0.00142894
-0.00149531
-0.00153506
-0.00155354
-0.00159818
-0.00165385
-0.00168939
-0.00172369
-0.00177331
-0.00182395
-0.0018675
-0.00190994
-0.00195595
-0.00200382
-0.00205262
-0.00210456
-0.00215635
-0.00220368
-0.00225231
-0.00230869
-0.0023658
-0.00241792
-0.0024712
-0.00252966
-0.00258944
-0.00264737
-0.00270673
-0.00276857
-0.00283158
-0.00289502
-0.00295928
-0.00302555
-0.00309289
-0.00316175
-0.00323156
-0.00330247
-0.00337496
-0.00344846
-0.00352361
-0.00359934
-0.0036755
-0.00375148
-0.0038252
-0.00389546
-0.00396026
-0.004019
-0.0040729
-0.00412353
-0.00417252
-0.00422011
-0.00426518
-0.00430733
-0.000562032
-0.000486304
-0.000415573
-0.000361064
-0.000326366
-0.000310222
-0.000309216
-0.000319899
-0.000339424
-0.000363616
-0.000389151
-0.000413067
-0.000435003
-0.000455423
-0.000473311
-0.000488535
-0.000500089
-0.000509454
-0.000521002
-0.000540986
-0.000573147
-0.000612905
-0.000651249
-0.00067664
-0.000686521
-0.000691365
-0.000706524
-0.000743661
-0.00079518
-0.000840178
-0.000863769
-0.000867874
-0.00087772
-0.000913206
-0.000968341
-0.00101933
-0.00104371
-0.00105
-0.00106861
-0.00111313
-0.00117039
-0.00121036
-0.0012247
-0.0012459
-0.00129268
-0.00134677
-0.00138437
-0.00140198
-0.00143052
-0.00148975
-0.00154025
-0.00156322
-0.00159917
-0.00165404
-0.00169559
-0.00172879
-0.00177408
-0.00182456
-0.00187005
-0.00191307
-0.00195876
-0.00200683
-0.0020551
-0.00210561
-0.00215822
-0.00220769
-0.00225541
-0.00230956
-0.00236734
-0.00242111
-0.00247373
-0.00253085
-0.00259086
-0.00264954
-0.00270865
-0.00276972
-0.0028323
-0.00289581
-0.00296019
-0.00302622
-0.00309287
-0.00316095
-0.00323033
-0.00330098
-0.00337283
-0.00344494
-0.00351836
-0.00359274
-0.00366777
-0.00374214
-0.00381353
-0.0038815
-0.00394571
-0.0040063
-0.0040643
-0.00411897
-0.00417064
-0.0042192
-0.00426436
-0.0043059
-0.000531627
-0.00047861
-0.000430859
-0.000395748
-0.000375354
-0.000368092
-0.00037096
-0.000380719
-0.000395308
-0.000412638
-0.000430865
-0.000448567
-0.000465379
-0.000482653
-0.000500406
-0.000518136
-0.000533867
-0.000546272
-0.000556956
-0.000570421
-0.000592937
-0.00062505
-0.000661732
-0.000693126
-0.000711548
-0.000720386
-0.000730804
-0.000755998
-0.000798098
-0.000843223
-0.000875833
-0.000889827
-0.000898681
-0.000923033
-0.000967319
-0.00101764
-0.00105253
-0.00106758
-0.00108329
-0.00111724
-0.00116735
-0.00121308
-0.00123721
-0.00125624
-0.0012937
-0.00134423
-0.00138826
-0.00141486
-0.00143881
-0.00148654
-0.00154095
-0.00157236
-0.00160275
-0.00165264
-0.00169939
-0.00173493
-0.00177678
-0.00182582
-0.00187279
-0.00191691
-0.00196219
-0.00200986
-0.00205803
-0.00210736
-0.00215949
-0.00221078
-0.0022591
-0.00231119
-0.0023683
-0.00242362
-0.0024767
-0.00253278
-0.00259236
-0.00265127
-0.00271026
-0.0027711
-0.00283369
-0.00289705
-0.00296086
-0.00302636
-0.00309284
-0.00316078
-0.00322958
-0.00329919
-0.00337001
-0.00344141
-0.00351404
-0.00358677
-0.00365915
-0.00373101
-0.0038011
-0.00386936
-0.00393442
-0.00399558
-0.004053
-0.00410683
-0.00415795
-0.00420688
-0.0042526
-0.00429475
-0.00051239
-0.000476536
-0.000445307
-0.000423856
-0.00041332
-0.000412131
-0.000417813
-0.000427812
-0.000440485
-0.000454641
-0.00046911
-0.000483193
-0.000496526
-0.000510478
-0.000526064
-0.000543463
-0.000561411
-0.000577264
-0.000590366
-0.000602415
-0.00061846
-0.000642411
-0.00067341
-0.000705617
-0.00073054
-0.000745771
-0.000757007
-0.000774708
-0.000806389
-0.000846677
-0.000883428
-0.000906808
-0.000920045
-0.000938621
-0.000972563
-0.00101708
-0.00105696
-0.00108114
-0.00109844
-0.0011255
-0.00116767
-0.00121376
-0.00124644
-0.00126866
-0.00129967
-0.00134398
-0.00138919
-0.00142321
-0.00144879
-0.00148729
-0.00153934
-0.00157911
-0.00160967
-0.00165349
-0.00170198
-0.00174115
-0.00178096
-0.00182749
-0.00187488
-0.00192014
-0.00196549
-0.00201273
-0.00206105
-0.00210989
-0.00216102
-0.00221332
-0.00226307
-0.00231392
-0.00236957
-0.00242588
-0.00247988
-0.00253508
-0.00259397
-0.00265332
-0.00271255
-0.00277289
-0.00283496
-0.00289817
-0.00296195
-0.00302726
-0.0030933
-0.00316051
-0.00322858
-0.00329757
-0.00336771
-0.00343803
-0.00350915
-0.00358042
-0.00365181
-0.00372296
-0.00379213
-0.00385911
-0.00392316
-0.0039843
-0.00404327
-0.00409957
-0.00415322
-0.0042039
-0.00425084
-0.00429352
-0.000499314
-0.00047725
-0.000458668
-0.00044721
-0.000443544
-0.000446381
-0.000453741
-0.000463841
-0.000475517
-0.000488225
-0.000501193
-0.000513843
-0.000525823
-0.000537845
-0.000551238
-0.000566822
-0.000584427
-0.00060213
-0.000618004
-0.0006316
-0.000645503
-0.000663807
-0.000688442
-0.0007174
-0.000744746
-0.000765562
-0.000780724
-0.000796342
-0.000820407
-0.00085371
-0.000889403
-0.000918435
-0.000937872
-0.000955783
-0.000982545
-0.00101992
-0.00105973
-0.0010906
-0.00111273
-0.00113735
-0.00117226
-0.00121432
-0.00125152
-0.00127903
-0.00130756
-0.00134601
-0.00138944
-0.00142826
-0.00145875
-0.00149257
-0.00153848
-0.00158246
-0.00161668
-0.00165591
-0.00170277
-0.00174525
-0.00178526
-0.00182965
-0.0018766
-0.00192268
-0.00196844
-0.00201537
-0.00206363
-0.00211238
-0.00216251
-0.00221474
-0.00226591
-0.00231666
-0.00237072
-0.00242704
-0.0024822
-0.00253725
-0.00259522
-0.00265445
-0.00271389
-0.00277403
-0.00283581
-0.00289882
-0.00296227
-0.00302706
-0.00309262
-0.00315948
-0.0032271
-0.0032954
-0.00336467
-0.00343418
-0.00350452
-0.00357482
-0.0036447
-0.003714
-0.00378169
-0.00384812
-0.00391253
-0.00397446
-0.00403395
-0.00409034
-0.00414368
-0.00419417
-0.00424086
-0.00428337
-0.000494806
-0.000481879
-0.000471765
-0.000467091
-0.000468148
-0.000473823
-0.00048247
-0.000492747
-0.000503785
-0.000515355
-0.000527318
-0.000539457
-0.000551401
-0.000563157
-0.000575534
-0.000589464
-0.000605531
-0.000623062
-0.00064047
-0.000656464
-0.00067134
-0.000687378
-0.000707111
-0.000731187
-0.000757286
-0.0007812
-0.000800961
-0.000818345
-0.000838557
-0.000865134
-0.000896644
-0.000927443
-0.000952718
-0.000973841
-0.000997512
-0.00102817
-0.00106396
-0.0010976
-0.00112512
-0.0011507
-0.00118098
-0.00121805
-0.00125624
-0.00128886
-0.00131845
-0.00135276
-0.00139252
-0.00143265
-0.00146777
-0.00150111
-0.0015414
-0.00158558
-0.00162415
-0.00166197
-0.00170587
-0.00174995
-0.00179141
-0.00183454
-0.00188039
-0.0019266
-0.00197283
-0.00201972
-0.00206778
-0.00211662
-0.00216621
-0.00221782
-0.00226981
-0.00232122
-0.0023742
-0.00242977
-0.00248564
-0.00254099
-0.00259826
-0.00265712
-0.00271674
-0.00277676
-0.00283807
-0.00290075
-0.00296405
-0.00302864
-0.00309388
-0.00316028
-0.00322732
-0.003295
-0.00336358
-0.00343221
-0.00350144
-0.00357049
-0.00363927
-0.00370776
-0.00377491
-0.00384088
-0.00390482
-0.00396638
-0.00402587
-0.00408279
-0.00413709
-0.00418856
-0.00423613
-0.00427925
-0.000488489
-0.000483747
-0.000480962
-0.00048168
-0.000486095
-0.000493536
-0.000502868
-0.000513119
-0.000523682
-0.000534526
-0.00054583
-0.0005577
-0.000569996
-0.000582423
-0.000595008
-0.000608165
-0.00062257
-0.000638542
-0.000655656
-0.000672965
-0.000689693
-0.000706154
-0.000723758
-0.000743844
-0.000766661
-0.000790341
-0.000812855
-0.000833317
-0.000853475
-0.000876265
-0.000903038
-0.000932019
-0.000959908
-0.000984727
-0.00100875
-0.00103559
-0.00106687
-0.00110006
-0.00113099
-0.00115915
-0.0011881
-0.00122118
-0.00125741
-0.00129242
-0.00132447
-0.00135741
-0.00139405
-0.00143325
-0.00147098
-0.00150625
-0.00154376
-0.00158572
-0.00162666
-0.00166539
-0.00170699
-0.00175082
-0.00179373
-0.00183671
-0.00188162
-0.00192763
-0.00197417
-0.00202118
-0.0020691
-0.00211803
-0.00216753
-0.00221848
-0.00227054
-0.00232275
-0.00237548
-0.00243018
-0.00248622
-0.00254212
-0.00259911
-0.00265749
-0.00271711
-0.00277722
-0.00283835
-0.0029008
-0.00296394
-0.00302827
-0.00309315
-0.00315915
-0.00322579
-0.00329297
-0.00336095
-0.00342889
-0.00349738
-0.00356567
-0.00363367
-0.00370136
-0.00376771
-0.00383307
-0.00389681
-0.00395869
-0.00401883
-0.00407638
-0.0041311
-0.00418283
-0.00423051
-0.00427359
-0.000488102
-0.0004886
-0.000490956
-0.000495786
-0.000502979
-0.000512025
-0.000522195
-0.000532856
-0.00054361
-0.000554431
-0.00056554
-0.000577237
-0.000589618
-0.000602525
-0.000615744
-0.000629272
-0.000643414
-0.000658577
-0.000674951
-0.0006922
-0.00070974
-0.000727175
-0.000744867
-0.000763619
-0.000784212
-0.000806338
-0.000829008
-0.000850991
-0.000872397
-0.000894451
-0.0009187
-0.000945265
-0.000972746
-0.000999186
-0.00102466
-0.00105081
-0.00107955
-0.00111064
-0.00114178
-0.00117156
-0.00120104
-0.00123244
-0.00126649
-0.00130137
-0.00133487
-0.00136817
-0.00140334
-0.00144091
-0.00147878
-0.00151547
-0.00155259
-0.00159259
-0.00163355
-0.00167337
-0.00171422
-0.00175708
-0.00180039
-0.00184358
-0.001888
-0.00193361
-0.00198003
-0.002027
-0.00207476
-0.0021236
-0.00217306
-0.00222365
-0.00227538
-0.00232784
-0.00238069
-0.00243488
-0.00249059
-0.00254668
-0.00260363
-0.00266163
-0.00272101
-0.00278101