/*--------------------------------*- C++ -*----------------------------------*\
| =========                 |                                                 |
| \\      /  F ield         | OpenFOAM: The Open Source CFD Toolbox           |
|  \\    /   O peration     | Version:  v2012                                 |
|   \\  /    A nd           | Website:  www.openfoam.com                      |
|    \\/     M anipulation  |                                                 |
\*---------------------------------------------------------------------------*/
FoamFile
{
    version     2.0;
    format      ascii;
    class       surfaceScalarField;
    location    "0.5";
    object      phi;
}
// * * * * * * * * * * * * * * * * * * * * * * * * * * * * * * * * * * * * * //

dimensions      [0 3 -1 0 0 0 0];
oriented        oriented;


internalField   nonuniform List<scalar> 
4660
(
1.99009e-05
-2.92517e-10
1.99017e-05
-3.72116e-09
1.99017e-05
-1.92894e-09
1.99015e-05
-1.46514e-09
1.99014e-05
8.98218e-10
1.99015e-05
1.72616e-10
1.99023e-05
-9.72471e-10
1.99045e-05
-4.2e-09
1.99078e-05
-7.04735e-09
1.99113e-05
-1.04148e-08
1.9913e-05
-1.06823e-08
1.99101e-05
-7.43605e-09
1.99046e-05
-1.41889e-09
1.98988e-05
5.52225e-09
1.98916e-05
1.121e-08
1.98846e-05
1.36844e-08
1.98786e-05
1.41558e-08
1.98737e-05
1.33125e-08
1.98696e-05
1.23701e-08
1.1611e-08
1.98658e-05
2.16597e-05
-2.33916e-10
2.16583e-05
-2.24873e-09
2.16586e-05
-2.21456e-09
2.16592e-05
-2.10703e-09
2.1661e-05
-9.06941e-10
2.16616e-05
-4.2158e-10
2.16619e-05
-1.26385e-09
2.16608e-05
-3.15317e-09
2.16581e-05
-4.34564e-09
2.16522e-05
-4.47574e-09
2.1644e-05
-2.45478e-09
2.16353e-05
1.23617e-09
2.16282e-05
5.6505e-09
2.16245e-05
9.23688e-09
2.16238e-05
1.19495e-08
2.16245e-05
1.29444e-08
2.16259e-05
1.27381e-08
2.16276e-05
1.16844e-08
2.16295e-05
1.04496e-08
9.39758e-09
2.16317e-05
2.35745e-05
-2.33778e-10
2.35731e-05
-8.27461e-10
2.35727e-05
-1.86048e-09
2.35731e-05
-2.5114e-09
2.35748e-05
-2.5737e-09
2.35755e-05
-1.16281e-09
2.35742e-05
9.79951e-11
2.35707e-05
3.26787e-10
2.35661e-05
2.79634e-10
2.35601e-05
1.49544e-09
2.35538e-05
3.88013e-09
2.35482e-05
6.82136e-09
2.35446e-05
9.19014e-09
2.3543e-05
1.08723e-08
2.35431e-05
1.18364e-08
2.35438e-05
1.22555e-08
2.3545e-05
1.15266e-08
2.35463e-05
1.04082e-08
2.35476e-05
9.16684e-09
8.08497e-09
2.35489e-05
2.56584e-05
-2.20689e-10
2.56582e-05
-6.28925e-10
2.56577e-05
-1.34793e-09
2.56568e-05
-1.60823e-09
2.56565e-05
-2.28138e-09
2.56566e-05
-1.25924e-09
2.56556e-05
1.15435e-09
2.56521e-05
3.77758e-09
2.56468e-05
5.61492e-09
2.56409e-05
7.36011e-09
2.56356e-05
9.15044e-09
2.56318e-05
1.07121e-08
2.56292e-05
1.17449e-08
2.56277e-05
1.23361e-08
2.56273e-05
1.22961e-08
2.56279e-05
1.16121e-08
2.5629e-05
1.04096e-08
2.56307e-05
8.77565e-09
2.56324e-05
7.4273e-09
6.35125e-09
2.56341e-05
2.79266e-05
-1.84322e-10
2.79265e-05
-5.05996e-10
2.7926e-05
-8.88989e-10
2.7925e-05
-5.76986e-10
2.79232e-05
-4.74511e-10
2.79217e-05
2.26278e-10
2.79205e-05
2.35417e-09
2.7918e-05
6.23731e-09
2.79136e-05
1.00248e-08
2.79084e-05
1.25643e-08
2.79041e-05
1.3414e-08
2.79009e-05
1.39072e-08
2.78988e-05
1.38445e-08
2.78979e-05
1.33022e-08
2.78979e-05
1.22559e-08
2.78986e-05
1.0885e-08
2.78998e-05
9.25779e-09
2.7901e-05
7.57408e-09
2.79024e-05
5.9863e-09
4.74436e-09
2.7904e-05
3.03952e-05
-9.13143e-11
3.03949e-05
-1.73143e-10
3.03942e-05
-2.31762e-10
3.03932e-05
4.0325e-10
3.03914e-05
1.38646e-09
3.03887e-05
2.87912e-09
3.03862e-05
4.87438e-09
3.03839e-05
8.51744e-09
3.03815e-05
1.24601e-08
3.03784e-05
1.56299e-08
3.03751e-05
1.66686e-08
3.03727e-05
1.63421e-08
3.03713e-05
1.52081e-08
3.0371e-05
1.36719e-08
3.03713e-05
1.19045e-08
3.03722e-05
1.00585e-08
3.03732e-05
8.21224e-09
3.03743e-05
6.50888e-09
3.03754e-05
4.89963e-09
3.66653e-09
3.03764e-05
3.3082e-05
3.94608e-11
3.30816e-05
2.44286e-10
3.30808e-05
5.81465e-10
3.30795e-05
1.73683e-09
3.30776e-05
3.27605e-09
3.30749e-05
5.56969e-09
3.30718e-05
7.94701e-09
3.30696e-05
1.07328e-08
3.30682e-05
1.38974e-08
3.30672e-05
1.65966e-08
3.30658e-05
1.80603e-08
3.30645e-05
1.7624e-08
3.30636e-05
1.61489e-08
3.30632e-05
1.40374e-08
3.30634e-05
1.16836e-08
3.30641e-05
9.39519e-09
3.30649e-05
7.46613e-09
3.30657e-05
5.62281e-09
3.30666e-05
4.05104e-09
2.92479e-09
3.30673e-05
3.60064e-05
2.27372e-10
3.60058e-05
7.98053e-10
3.60048e-05
1.6046e-09
3.60033e-05
3.2391e-09
3.60014e-05
5.22467e-09
3.59992e-05
7.70904e-09
3.59968e-05
1.0385e-08
3.59948e-05
1.27259e-08
3.59939e-05
1.47972e-08
3.59938e-05
1.67088e-08
3.5994e-05
1.78863e-08
3.59937e-05
1.79287e-08
3.59932e-05
1.65696e-08
3.59929e-05
1.43216e-08
3.59929e-05
1.17684e-08
3.59931e-05
9.18305e-09
3.59937e-05
6.81154e-09
3.59945e-05
4.87238e-09
3.59952e-05
3.38009e-09
2.34102e-09
3.59957e-05
3.91893e-05
4.66067e-10
3.91886e-05
1.50297e-09
3.91874e-05
2.75033e-09
3.9186e-05
4.6728e-09
3.91843e-05
6.95119e-09
3.91826e-05
9.3911e-09
3.91811e-05
1.18846e-08
3.91797e-05
1.40749e-08
3.9179e-05
1.55445e-08
3.91791e-05
1.65703e-08
3.91798e-05
1.7197e-08
3.91806e-05
1.7131e-08
3.91811e-05
1.61027e-08
3.91813e-05
1.40507e-08
3.91815e-05
1.1612e-08
3.91816e-05
9.08517e-09
3.91817e-05
6.67334e-09
3.9182e-05
4.63085e-09
3.91823e-05
3.09009e-09
2.07481e-09
3.91825e-05
4.26535e-05
7.3671e-10
4.26528e-05
2.23081e-09
4.26517e-05
3.88252e-09
4.26503e-05
6.00543e-09
4.2649e-05
8.32558e-09
4.26477e-05
1.06514e-08
4.26468e-05
1.27338e-08
4.26463e-05
1.46016e-08
4.26462e-05
1.57083e-08
4.26464e-05
1.62953e-08
4.26474e-05
1.62497e-08
4.26487e-05
1.58611e-08
4.26498e-05
1.49687e-08
4.26504e-05
1.34496e-08
4.26506e-05
1.14432e-08
4.26506e-05
9.02543e-09
4.26505e-05
6.74142e-09
4.26504e-05
4.73552e-09
4.26504e-05
3.10562e-09
2.00362e-09
4.26505e-05
4.6424e-05
1.01055e-09
4.64233e-05
2.95632e-09
4.64223e-05
4.89896e-09
4.64212e-05
7.07575e-09
4.64203e-05
9.28118e-09
4.64195e-05
1.13967e-08
4.64192e-05
1.30631e-08
4.64193e-05
1.45035e-08
4.64197e-05
1.53356e-08
4.64203e-05
1.56312e-08
4.64213e-05
1.5307e-08
4.64226e-05
1.45958e-08
4.64239e-05
1.36538e-08
4.6425e-05
1.23406e-08
4.64257e-05
1.06921e-08
4.64259e-05
8.81582e-09
4.64258e-05
6.83439e-09
4.64256e-05
4.93504e-09
4.64254e-05
3.39776e-09
2.29886e-09
4.64251e-05
5.05279e-05
1.24351e-09
5.05273e-05
3.58286e-09
5.05265e-05
5.6796e-09
5.05258e-05
7.83944e-09
5.05252e-05
9.84042e-09
5.0525e-05
1.1643e-08
5.05251e-05
1.29551e-08
5.05256e-05
1.39756e-08
5.05264e-05
1.45338e-08
5.05274e-05
1.46291e-08
5.05285e-05
1.41977e-08
5.05297e-05
1.34019e-08
5.0531e-05
1.23115e-08
5.05322e-05
1.11349e-08
5.05332e-05
9.71712e-09
5.05338e-05
8.20378e-09
5.05341e-05
6.5999e-09
5.05339e-05
5.13109e-09
5.05335e-05
3.72526e-09
2.69008e-09
5.05331e-05
5.49946e-05
1.41831e-09
5.49941e-05
4.04133e-09
5.49936e-05
6.19821e-09
5.49932e-05
8.22762e-09
5.49931e-05
9.98633e-09
5.49933e-05
1.14269e-08
5.49938e-05
1.24585e-08
5.49946e-05
1.31654e-08
5.49957e-05
1.345e-08
5.4997e-05
1.33647e-08
5.49983e-05
1.28871e-08
5.49996e-05
1.21041e-08
5.50008e-05
1.1099e-08
5.50019e-05
9.96534e-09
5.50029e-05
8.72335e-09
5.50037e-05
7.45484e-09
5.50041e-05
6.14159e-09
5.50043e-05
4.95462e-09
5.50041e-05
3.91585e-09
3.056e-09
5.50038e-05
5.98561e-05
1.52722e-09
5.98559e-05
4.25394e-09
5.98557e-05
6.41708e-09
5.98557e-05
8.25486e-09
5.98559e-05
9.72123e-09
5.98565e-05
1.08685e-08
5.98573e-05
1.16396e-08
5.98584e-05
1.20889e-08
5.98596e-05
1.21824e-08
5.9861e-05
1.19684e-08
5.98625e-05
1.14564e-08
5.98639e-05
1.07052e-08
5.98652e-05
9.80114e-09
5.98663e-05
8.80038e-09
5.98673e-05
7.76388e-09
5.9868e-05
6.70144e-09
5.98685e-05
5.65147e-09
5.98688e-05
4.6834e-09
5.98688e-05
3.87375e-09
3.20134e-09
5.98687e-05
6.51474e-05
1.55044e-09
6.51474e-05
4.22754e-09
6.51475e-05
6.31209e-09
6.51479e-05
7.91611e-09
6.51485e-05
9.10758e-09
6.51493e-05
1.00106e-08
6.51504e-05
1.05533e-08
6.51517e-05
1.08012e-08
6.51531e-05
1.07659e-08
6.51546e-05
1.04892e-08
6.51561e-05
9.98983e-09
6.51575e-05
9.3182e-09
6.51587e-05
8.51692e-09
6.51599e-05
7.67458e-09
6.51608e-05
6.80787e-09
6.51616e-05
5.9528e-09
6.51621e-05
5.12761e-09
6.51624e-05
4.35244e-09
6.51626e-05
3.70679e-09
3.17408e-09
6.51626e-05
7.09064e-05
1.48212e-09
7.09067e-05
3.96506e-09
7.09071e-05
5.86507e-09
7.09078e-05
7.25661e-09
7.09087e-05
8.2191e-09
7.09098e-05
8.89544e-09
7.09111e-05
9.25571e-09
7.09125e-05
9.35336e-09
7.09141e-05
9.23215e-09
7.09156e-05
8.93596e-09
7.09171e-05
8.48586e-09
7.09185e-05
7.94225e-09
7.09197e-05
7.34619e-09
7.09207e-05
6.65873e-09
7.09216e-05
5.93435e-09
7.09223e-05
5.20591e-09
7.09229e-05
4.53281e-09
7.09233e-05
3.9143e-09
7.09236e-05
3.39336e-09
2.97775e-09
7.09238e-05
7.71745e-05
1.31823e-09
7.7175e-05
3.49824e-09
7.71757e-05
5.12624e-09
7.71767e-05
6.2873e-09
7.71778e-05
7.06164e-09
7.71792e-05
7.55821e-09
7.71806e-05
7.79129e-09
7.71822e-05
7.81097e-09
7.71838e-05
7.65118e-09
7.71853e-05
7.35659e-09
7.71869e-05
6.95545e-09
7.71883e-05
6.50551e-09
7.71896e-05
6.01205e-09
7.71908e-05
5.48976e-09
7.71918e-05
4.96412e-09
7.71926e-05
4.43837e-09
7.71931e-05
3.94358e-09
7.71936e-05
3.48815e-09
7.71939e-05
3.08136e-09
2.74064e-09
7.71941e-05
8.39967e-05
1.07118e-09
8.39973e-05
2.83172e-09
8.39983e-05
4.13376e-09
8.39996e-05
5.0574e-09
8.4001e-05
5.65434e-09
8.40025e-05
6.01324e-09
8.40041e-05
6.17476e-09
8.40058e-05
6.17795e-09
8.40074e-05
6.05351e-09
8.40089e-05
5.8378e-09
8.40103e-05
5.5461e-09
8.40116e-05
5.19978e-09
8.40128e-05
4.80782e-09
8.40139e-05
4.39173e-09
8.40149e-05
3.97318e-09
8.40158e-05
3.5631e-09
8.40165e-05
3.17682e-09
8.40172e-05
2.8295e-09
8.40178e-05
2.5227e-09
2.27364e-09
8.40182e-05
9.14219e-05
7.87974e-10
9.14227e-05
2.04244e-09
9.14238e-05
2.95694e-09
9.14253e-05
3.60703e-09
9.14269e-05
4.02851e-09
9.14286e-05
4.27802e-09
9.14304e-05
4.3908e-09
9.14322e-05
4.39663e-09
9.14339e-05
4.31497e-09
9.14356e-05
4.17107e-09
9.14372e-05
3.97837e-09
9.14386e-05
3.75067e-09
9.14399e-05
3.4966e-09
9.14411e-05
3.22723e-09
9.14421e-05
2.95386e-09
9.1443e-05
2.68492e-09
9.14438e-05
2.42317e-09
9.14444e-05
2.1804e-09
9.1445e-05
1.96009e-09
1.76907e-09
9.14455e-05
9.95035e-05
9.95046e-05
9.9506e-05
9.95076e-05
9.95095e-05
9.95114e-05
9.95133e-05
9.95152e-05
9.9517e-05
9.95188e-05
9.95204e-05
9.95219e-05
9.95233e-05
9.95246e-05
9.95257e-05
9.95267e-05
9.95275e-05
9.95282e-05
9.95288e-05
9.95293e-05
1.98532e-05
1.26053e-08
1.9839e-05
1.42543e-08
1.9823e-05
1.60297e-08
1.98052e-05
1.77187e-08
1.97861e-05
1.91247e-08
1.97659e-05
2.01866e-08
1.97449e-05
2.09805e-08
1.97234e-05
2.15825e-08
1.97013e-05
2.20708e-08
1.96788e-05
2.24819e-08
1.9656e-05
2.28009e-08
1.96329e-05
2.31128e-08
1.96095e-05
2.33839e-08
1.95858e-05
2.37091e-08
1.95617e-05
2.41011e-08
1.95371e-05
2.45526e-08
1.95121e-05
2.50917e-08
1.94864e-05
2.56332e-08
1.94602e-05
2.61711e-08
1.94335e-05
2.67155e-08
1.94064e-05
2.71789e-08
1.93787e-05
2.76709e-08
1.93506e-05
2.81275e-08
1.9322e-05
2.85573e-08
1.92929e-05
2.90794e-08
1.92634e-05
2.95133e-08
1.92334e-05
3.0042e-08
1.92028e-05
3.05821e-08
1.91717e-05
3.10801e-08
1.91401e-05
3.16475e-08
1.91079e-05
3.2157e-08
1.90753e-05
3.25896e-08
1.90421e-05
3.31802e-08
1.90085e-05
3.36428e-08
1.89742e-05
3.42704e-08
1.89393e-05
3.4899e-08
1.89039e-05
3.54359e-08
1.88679e-05
3.59985e-08
1.88313e-05
3.66294e-08
1.8794e-05
3.72658e-08
1.87559e-05
3.80433e-08
1.87173e-05
3.86195e-08
1.86781e-05
3.92328e-08
1.86382e-05
3.98757e-08
1.85979e-05
4.03286e-08
1.85569e-05
4.10069e-08
1.85153e-05
4.16242e-08
1.84733e-05
4.19447e-08
1.84305e-05
4.27599e-08
1.83866e-05
4.39523e-08
1.8342e-05
4.45548e-08
1.82964e-05
4.55983e-08
1.82494e-05
4.69956e-08
1.8202e-05
4.74891e-08
1.81543e-05
4.76414e-08
1.81061e-05
4.82479e-08
1.80578e-05
4.82494e-08
1.80099e-05
4.79225e-08
1.7961e-05
4.88607e-08
1.791e-05
5.10252e-08
1.78559e-05
5.40623e-08
1.77991e-05
5.68352e-08
1.77419e-05
5.71677e-08
1.76868e-05
5.51187e-08
1.76328e-05
5.39996e-08
1.7578e-05
5.4781e-08
1.75226e-05
5.54717e-08
1.74662e-05
5.63892e-08
1.74074e-05
5.87588e-08
1.73463e-05
6.10996e-08
1.72847e-05
6.15955e-08
1.72225e-05
6.22734e-08
1.71577e-05
6.47408e-08
1.70912e-05
6.64758e-08
1.70254e-05
6.58525e-08
1.69599e-05
6.55236e-08
1.68918e-05
6.81097e-08
1.68209e-05
7.08135e-08
1.67507e-05
7.0269e-08
1.66821e-05
6.85744e-08
1.6612e-05
7.00785e-08
1.65371e-05
7.49622e-08
1.64594e-05
7.76749e-08
1.63841e-05
7.53309e-08
1.63129e-05
7.11532e-08
1.62416e-05
7.13232e-08
1.61639e-05
7.76905e-08
1.60785e-05
8.53939e-08
1.59912e-05
8.72953e-08
1.59114e-05
7.97656e-08
1.58475e-05
6.39003e-08
1.58026e-05
4.49536e-08
1.57754e-05
2.71769e-08
1.57614e-05
1.40452e-08
1.5756e-05
5.35467e-09
1.57549e-05
1.11899e-09
1.5756e-05
-1.08064e-09
1.57571e-05
-1.14252e-09
1.57586e-05
-1.46154e-09
-3.20606e-10
2.16346e-05
9.73468e-09
2.1638e-05
1.08233e-08
2.16416e-05
1.23884e-08
2.16451e-05
1.42164e-08
2.16482e-05
1.60854e-08
2.16506e-05
1.77974e-08
2.16523e-05
1.92501e-08
2.16535e-05
2.04121e-08
2.16542e-05
2.13013e-08
2.16548e-05
2.19586e-08
2.16552e-05
2.23715e-08
2.16557e-05
2.26325e-08
2.16563e-05
2.27889e-08
2.1657e-05
2.29807e-08
2.16578e-05
2.3295e-08
2.16586e-05
2.37491e-08
2.16593e-05
2.43589e-08
2.16599e-05
2.50531e-08
2.16603e-05
2.57539e-08
2.16606e-05
2.64711e-08
2.16607e-05
2.70781e-08
2.16607e-05
2.76524e-08
2.16607e-05
2.81792e-08
2.16606e-05
2.8637e-08
2.16605e-05
2.9192e-08
2.16603e-05
2.96786e-08
2.16601e-05
3.02417e-08
2.16598e-05
3.08515e-08
2.16595e-05
3.14279e-08
2.16591e-05
3.20567e-08
2.16585e-05
3.26772e-08
2.1658e-05
3.3178e-08
2.16573e-05
3.38345e-08
2.16566e-05
3.4382e-08
2.16557e-05
3.50886e-08
2.16548e-05
3.58079e-08
2.16538e-05
3.64685e-08
2.16527e-05
3.70841e-08
2.16516e-05
3.77903e-08
2.16503e-05
3.85044e-08
2.1649e-05
3.93687e-08
2.16476e-05
4.00644e-08
2.1646e-05
4.07887e-08
2.16443e-05
4.1529e-08
2.16426e-05
4.20865e-08
2.16407e-05
4.28766e-08
2.16387e-05
4.36249e-08
2.16365e-05
4.41197e-08
2.16343e-05
4.50123e-08
2.16318e-05
4.63972e-08
2.16292e-05
4.72178e-08
2.16264e-05
4.83652e-08
2.16236e-05
4.97972e-08
2.16207e-05
5.04408e-08
2.16177e-05
5.06374e-08
2.16147e-05
5.12401e-08
2.16115e-05
5.14331e-08
2.1608e-05
5.14115e-08
2.16042e-05
5.26982e-08
2.15999e-05
5.53186e-08
2.1595e-05
5.88894e-08
2.159e-05
6.18286e-08
2.15853e-05
6.192e-08
2.15809e-05
5.95195e-08
2.15766e-05
5.82567e-08
2.15721e-05
5.93151e-08
2.15669e-05
6.06498e-08
2.15609e-05
6.23658e-08
2.15545e-05
6.5218e-08
2.15477e-05
6.788e-08
2.15406e-05
6.86718e-08
2.15332e-05
6.9656e-08
2.15258e-05
7.22376e-08
2.15182e-05
7.40167e-08
2.15105e-05
7.36033e-08
2.15024e-05
7.35545e-08
2.14942e-05
7.63349e-08
2.14858e-05
7.92057e-08
2.14771e-05
7.89694e-08
2.14679e-05
7.78225e-08
2.14583e-05
7.96683e-08
2.14484e-05
8.48845e-08
2.14381e-05
8.78813e-08
2.14275e-05
8.59641e-08
2.14167e-05
8.19614e-08
2.1406e-05
8.20626e-08
2.13951e-05
8.85441e-08
2.13836e-05
9.69136e-08
2.13716e-05
9.93207e-08
2.13605e-05
9.08643e-08
2.13532e-05
7.11993e-08
2.1352e-05
4.60948e-08
2.13585e-05
2.07453e-08
2.13717e-05
8.23136e-10
2.13902e-05
-1.31819e-08
2.14104e-05
-1.90854e-08
2.14305e-05
-2.12013e-08
2.14469e-05
-1.75502e-08
2.14613e-05
-1.57794e-08
-8.62184e-09
2.35505e-05
8.08065e-09
2.35527e-05
8.66748e-09
2.35553e-05
9.77172e-09
2.35582e-05
1.13034e-08
2.35612e-05
1.31134e-08
2.3564e-05
1.5025e-08
2.35664e-05
1.68686e-08
2.35683e-05
1.84969e-08
2.35697e-05
1.98218e-08
2.35709e-05
2.08151e-08
2.35718e-05
2.14654e-08
2.35726e-05
2.18362e-08
2.35734e-05
2.1994e-08
2.35743e-05
2.20839e-08
2.35753e-05
2.22505e-08
2.35765e-05
2.25722e-08
2.35778e-05
2.31012e-08
2.3579e-05
2.37996e-08
2.35802e-05
2.45751e-08
2.35813e-05
2.54048e-08
2.35822e-05
2.61535e-08
2.3583e-05
2.68268e-08
2.35838e-05
2.74238e-08
2.35845e-05
2.78919e-08
2.35853e-05
2.84154e-08
2.35861e-05
2.88812e-08
2.35869e-05
2.94015e-08
2.35878e-05
2.99885e-08
2.35886e-05
3.057e-08
2.35895e-05
3.12018e-08
2.35903e-05
3.18688e-08
2.35911e-05
3.23998e-08
2.35919e-05
3.30398e-08
2.35927e-05
3.3613e-08
2.35934e-05
3.42981e-08
2.35942e-05
3.50169e-08
2.3595e-05
3.56983e-08
2.35958e-05
3.6297e-08
2.35966e-05
3.69611e-08
2.35975e-05
3.76585e-08
2.35983e-05
3.84854e-08
2.35992e-05
3.92314e-08
2.36e-05
3.99541e-08
2.36009e-05
4.06899e-08
2.36017e-05
4.12828e-08
2.36025e-05
4.20795e-08
2.36032e-05
4.28398e-08
2.3604e-05
4.34098e-08
2.36048e-05
4.42114e-08
2.36056e-05
4.55109e-08
2.36065e-05
4.63912e-08
2.36074e-05
4.74205e-08
2.36085e-05
4.86783e-08
2.36096e-05
4.94071e-08
2.36105e-05
4.97222e-08
2.36114e-05
5.03467e-08
2.3612e-05
5.07802e-08
2.36124e-05
5.10025e-08
2.3613e-05
5.21772e-08
2.36139e-05
5.44175e-08
2.36153e-05
5.74662e-08
2.36171e-05
6.00157e-08
2.36187e-05
6.03202e-08
2.36195e-05
5.86733e-08
2.362e-05
5.78433e-08
2.36203e-05
5.89386e-08
2.36206e-05
6.03439e-08
2.36209e-05
6.21014e-08
2.36215e-05
6.46079e-08
2.36224e-05
6.70015e-08
2.36231e-05
6.79644e-08
2.36237e-05
6.90027e-08
2.36248e-05
7.11431e-08
2.36261e-05
7.2711e-08
2.3627e-05
7.26997e-08
2.36277e-05
7.29162e-08
2.36289e-05
7.51569e-08
2.36304e-05
7.7624e-08
2.36316e-05
7.7831e-08
2.3632e-05
7.74135e-08
2.36327e-05
7.8965e-08
2.36344e-05
8.32172e-08
2.36364e-05
8.58519e-08
2.36375e-05
8.48404e-08
2.36376e-05
8.19194e-08
2.36377e-05
8.19235e-08
2.36394e-05
8.68791e-08
2.36428e-05
9.35083e-08
2.3647e-05
9.50607e-08
2.36506e-05
8.72522e-08
2.36527e-05
6.91156e-08
2.36533e-05
4.55635e-08
2.36529e-05
2.10977e-08
2.36524e-05
1.29992e-09
2.36516e-05
-1.23322e-08
2.3651e-05
-1.84679e-08
2.36505e-05
-2.07648e-08
2.36504e-05
-1.73812e-08
2.36502e-05
-1.56694e-08
-8.76291e-09
2.5636e-05
6.2043e-09
2.56381e-05
6.58061e-09
2.56404e-05
7.48621e-09
2.56428e-05
8.87809e-09
2.56453e-05
1.06427e-08
2.56477e-05
1.26221e-08
2.56499e-05
1.46352e-08
2.56519e-05
1.65068e-08
2.56536e-05
1.81023e-08
2.56551e-05
1.93521e-08
2.56563e-05
2.02367e-08
2.56574e-05
2.07927e-08
2.56583e-05
2.10818e-08
2.56592e-05
2.12126e-08
2.56601e-05
2.13302e-08
2.56611e-05
2.15529e-08
2.56622e-05
2.19644e-08
2.56634e-05
2.2579e-08
2.56647e-05
2.33335e-08
2.56659e-05
2.41869e-08
2.5667e-05
2.50442e-08
2.5668e-05
2.58301e-08
2.56689e-05
2.65411e-08
2.56697e-05
2.70857e-08
2.56705e-05
2.76008e-08
2.56713e-05
2.80582e-08
2.56722e-05
2.85345e-08
2.56731e-05
2.9058e-08
2.56741e-05
2.96287e-08
2.5675e-05
3.02405e-08
2.5676e-05
3.0932e-08
2.56769e-05
3.15179e-08
2.56777e-05
3.21484e-08
2.56786e-05
3.27492e-08
2.56795e-05
3.34277e-08
2.56804e-05
3.41294e-08
2.56813e-05
3.48163e-08
2.56821e-05
3.54126e-08
2.56831e-05
3.60178e-08
2.5684e-05
3.66919e-08
2.5685e-05
3.74871e-08
2.5686e-05
3.82749e-08
2.5687e-05
3.89849e-08
2.5688e-05
3.97089e-08
2.56889e-05
4.03211e-08
2.56899e-05
4.11055e-08
2.56909e-05
4.1871e-08
2.56917e-05
4.25273e-08
2.56927e-05
4.32312e-08
2.56938e-05
4.43907e-08
2.56949e-05
4.53731e-08
2.5696e-05
4.63279e-08
2.56973e-05
4.73365e-08
2.56986e-05
4.81141e-08
2.56997e-05
4.8643e-08
2.57008e-05
4.92254e-08
2.57018e-05
4.97221e-08
2.57026e-05
5.02203e-08
2.57034e-05
5.14461e-08
2.57045e-05
5.33091e-08
2.57063e-05
5.56667e-08
2.57086e-05
5.76766e-08
2.57108e-05
5.81703e-08
2.5712e-05
5.74453e-08
2.57126e-05
5.72564e-08
2.57132e-05
5.83344e-08
2.5714e-05
5.95394e-08
2.57149e-05
6.11889e-08
2.57161e-05
6.34149e-08
2.57176e-05
6.55189e-08
2.5719e-05
6.65386e-08
2.57204e-05
6.76419e-08
2.5722e-05
6.94867e-08
2.57239e-05
7.081e-08
2.57256e-05
7.0979e-08
2.57271e-05
7.14432e-08
2.57289e-05
7.3384e-08
2.5731e-05
7.547e-08
2.57331e-05
7.57671e-08
2.57347e-05
7.57856e-08
2.57364e-05
7.73009e-08
2.57387e-05
8.08744e-08
2.57416e-05
8.30268e-08
2.5744e-05
8.23504e-08
2.57458e-05
8.0195e-08
2.57474e-05
8.03418e-08
2.57499e-05
8.43047e-08
2.57541e-05
8.93357e-08
2.57594e-05
8.97341e-08
2.57647e-05
8.20013e-08
2.57685e-05
6.53125e-08
2.57699e-05
4.40931e-08
2.57687e-05
2.22971e-08
2.57655e-05
4.58847e-09
2.57616e-05
-8.46114e-09
2.57578e-05
-1.4693e-08
2.57546e-05
-1.75931e-08
2.57525e-05
-1.52057e-08
2.5751e-05
-1.41722e-08
-8.33348e-09
2.79059e-05
4.37173e-09
2.79079e-05
4.57358e-09
2.79099e-05
5.48538e-09
2.79119e-05
6.87672e-09
2.79139e-05
8.63943e-09
2.79159e-05
1.06425e-08
2.79178e-05
1.26962e-08
2.79197e-05
1.46352e-08
2.79214e-05
1.63349e-08
2.79231e-05
1.77177e-08
2.79246e-05
1.87623e-08
2.79259e-05
1.94815e-08
2.7927e-05
1.99307e-08
2.7928e-05
2.01833e-08
2.7929e-05
2.03606e-08
2.793e-05
2.05786e-08
2.7931e-05
2.09305e-08
2.79321e-05
2.14612e-08
2.79333e-05
2.21457e-08
2.79346e-05
2.29533e-08
2.79358e-05
2.38235e-08
2.79369e-05
2.46715e-08
2.7938e-05
2.54776e-08
2.7939e-05
2.61279e-08
2.79399e-05
2.66922e-08
2.79408e-05
2.71648e-08
2.79417e-05
2.76267e-08
2.79426e-05
2.81193e-08
2.79436e-05
2.86526e-08
2.79446e-05
2.92332e-08
2.79456e-05
2.99089e-08
2.79466e-05
3.0518e-08
2.79476e-05
3.11657e-08
2.79486e-05
3.17899e-08
2.79495e-05
3.24609e-08
2.79505e-05
3.3184e-08
2.79514e-05
3.38639e-08
2.79524e-05
3.44452e-08
2.79534e-05
3.50072e-08
2.79545e-05
3.56381e-08
2.79555e-05
3.64071e-08
2.79566e-05
3.7226e-08
2.79576e-05
3.79261e-08
2.79587e-05
3.86545e-08
2.79597e-05
3.92735e-08
2.79608e-05
4.00374e-08
2.79618e-05
4.08341e-08
2.79629e-05
4.15234e-08
2.79639e-05
4.21448e-08
2.79651e-05
4.32162e-08
2.79663e-05
4.42214e-08
2.79675e-05
4.50828e-08
2.79689e-05
4.59898e-08
2.79702e-05
4.67936e-08
2.79714e-05
4.73848e-08
2.79727e-05
4.80044e-08
2.79737e-05
4.86666e-08
2.79746e-05
4.92885e-08
2.79757e-05
5.03809e-08
2.79771e-05
5.19251e-08
2.79789e-05
5.38261e-08
2.7981e-05
5.55614e-08
2.7983e-05
5.62599e-08
2.79843e-05
5.6063e-08
2.79855e-05
5.6138e-08
2.79865e-05
5.72594e-08
2.79875e-05
5.85391e-08
2.79886e-05
6.01268e-08
2.799e-05
6.20352e-08
2.79916e-05
6.39423e-08
2.7993e-05
6.50832e-08
2.79945e-05
6.61284e-08
2.79964e-05
6.75904e-08
2.79984e-05
6.87828e-08
2.80002e-05
6.92507e-08
2.80018e-05
6.98523e-08
2.80038e-05
7.13213e-08
2.80062e-05
7.3054e-08
2.80084e-05
7.36474e-08
2.801e-05
7.41365e-08
2.80119e-05
7.54485e-08
2.80146e-05
7.81494e-08
2.80177e-05
7.98828e-08
2.80204e-05
7.96976e-08
2.80221e-05
7.84661e-08
2.80237e-05
7.87298e-08
2.80266e-05
8.14368e-08
2.80314e-05
8.45411e-08
2.80373e-05
8.38695e-08
2.80424e-05
7.68159e-08
2.80453e-05
6.24047e-08
2.80457e-05
4.37521e-08
2.8044e-05
2.39384e-08
2.80415e-05
7.13495e-09
2.80382e-05
-5.14499e-09
2.80351e-05
-1.15838e-08
2.80323e-05
-1.48579e-08
2.80304e-05
-1.32737e-08
2.80289e-05
-1.26627e-08
-7.68761e-09
3.03776e-05
3.21523e-09
3.03788e-05
3.34429e-09
3.03802e-05
4.06214e-09
3.03818e-05
5.32804e-09
3.03834e-05
7.00505e-09
3.03851e-05
8.94313e-09
3.03869e-05
1.09595e-08
3.03886e-05
1.28807e-08
3.03903e-05
1.46018e-08
3.0392e-05
1.60245e-08
3.03936e-05
1.71544e-08
3.03951e-05
1.79904e-08
3.03965e-05
1.85842e-08
3.03977e-05
1.89959e-08
3.03987e-05
1.92917e-08
3.03998e-05
1.95633e-08
3.04008e-05
1.99004e-08
3.04019e-05
2.03881e-08
3.0403e-05
2.10231e-08
3.04042e-05
2.17592e-08
3.04054e-05
2.25962e-08
3.04066e-05
2.34373e-08
3.04078e-05
2.42792e-08
3.04089e-05
2.50208e-08
3.041e-05
2.56441e-08
3.0411e-05
2.61504e-08
3.0412e-05
2.66272e-08
3.0413e-05
2.71312e-08
3.0414e-05
2.76543e-08
3.0415e-05
2.82019e-08
3.04161e-05
2.8844e-08
3.04172e-05
2.94366e-08
3.04183e-05
3.00687e-08
3.04193e-05
3.0714e-08
3.04204e-05
3.13823e-08
3.04215e-05
3.21446e-08
3.04225e-05
3.28539e-08
3.04235e-05
3.34174e-08
3.04246e-05
3.39257e-08
3.04257e-05
3.4522e-08
3.04268e-05
3.52662e-08
3.0428e-05
3.6105e-08
3.04291e-05
3.67719e-08
3.04303e-05
3.74875e-08
3.04314e-05
3.81555e-08
3.04326e-05
3.88795e-08
3.04337e-05
3.96524e-08
3.04349e-05
4.04074e-08
3.0436e-05
4.09784e-08
3.04373e-05
4.1901e-08
3.04386e-05
4.2969e-08
3.04398e-05
4.38325e-08
3.04412e-05
4.46015e-08
3.04426e-05
4.54108e-08
3.04439e-05
4.61394e-08
3.04451e-05
4.67222e-08
3.04465e-05
4.73368e-08
3.04477e-05
4.80564e-08
3.04489e-05
4.91495e-08
3.04504e-05
5.0488e-08
3.04522e-05
5.20216e-08
3.04542e-05
5.3481e-08
3.04563e-05
5.42168e-08
3.04579e-05
5.44587e-08
3.04591e-05
5.49444e-08
3.04602e-05
5.61321e-08
3.04615e-05
5.72721e-08
3.04629e-05
5.87132e-08
3.04644e-05
6.05012e-08
3.04661e-05
6.22291e-08
3.04679e-05
6.32912e-08
3.04698e-05
6.43009e-08
3.04717e-05
6.56932e-08
3.04736e-05
6.67955e-08
3.04757e-05
6.72428e-08
3.04776e-05
6.78692e-08
3.04797e-05
6.9246e-08
3.04819e-05
7.08671e-08
3.04841e-05
7.14562e-08
3.04863e-05
7.19539e-08
3.04886e-05
7.31453e-08
3.04912e-05
7.54988e-08
3.0494e-05
7.7118e-08
3.04966e-05
7.70613e-08
3.0499e-05
7.60908e-08
3.05016e-05
7.61452e-08
3.05049e-05
7.81155e-08
3.05091e-05
8.03176e-08
3.05139e-05
7.91002e-08
3.05186e-05
7.21002e-08
3.05223e-05
5.8742e-08
3.05241e-05
4.19561e-08
3.05234e-05
2.46244e-08
3.05206e-05
9.91668e-09
3.05169e-05
-1.42675e-09
3.05132e-05
-7.8936e-09
3.05099e-05
-1.15979e-08
3.05076e-05
-1.09346e-08
3.05059e-05
-1.09178e-08
-7.04242e-09
3.30681e-05
2.47814e-09
3.30689e-05
2.55851e-09
3.30697e-05
3.20519e-09
3.30707e-05
4.3331e-09
3.30719e-05
5.83784e-09
3.30732e-05
7.57782e-09
3.30747e-05
9.48952e-09
3.30763e-05
1.12971e-08
3.3078e-05
1.29433e-08
3.30796e-05
1.43512e-08
3.30813e-05
1.55116e-08
3.30828e-05
1.64402e-08
3.30843e-05
1.71376e-08
3.30856e-05
1.76782e-08
3.30868e-05
1.80986e-08
3.30879e-05
1.84791e-08
3.30889e-05
1.88746e-08
3.30899e-05
1.93327e-08
3.3091e-05
1.99264e-08
3.30922e-05
2.05969e-08
3.30934e-05
2.13678e-08
3.30947e-05
2.21748e-08
3.3096e-05
2.30014e-08
3.30972e-05
2.38044e-08
3.30983e-05
2.44944e-08
3.30995e-05
2.50296e-08
3.31006e-05
2.55095e-08
3.31017e-05
2.60306e-08
3.31027e-05
2.65775e-08
3.31038e-05
2.71392e-08
3.31049e-05
2.77669e-08
3.3106e-05
2.83244e-08
3.31072e-05
2.88902e-08
3.31084e-05
2.95199e-08
3.31096e-05
3.01805e-08
3.31107e-05
3.0982e-08
3.31118e-05
3.1756e-08
3.31129e-05
3.23243e-08
3.31141e-05
3.27642e-08
3.31153e-05
3.33016e-08
3.31165e-05
3.4037e-08
3.31178e-05
3.48878e-08
3.3119e-05
3.55131e-08
3.31203e-05
3.61856e-08
3.31216e-05
3.69119e-08
3.31228e-05
3.76559e-08
3.3124e-05
3.84036e-08
3.31253e-05
3.91668e-08
3.31265e-05
3.97159e-08
3.31279e-05
4.05377e-08
3.31293e-05
4.15957e-08
3.31307e-05
4.24037e-08
3.31322e-05
4.31074e-08
3.31337e-05
4.39414e-08
3.31351e-05
4.46985e-08
3.31365e-05
4.5295e-08
3.31379e-05
4.60087e-08
3.31391e-05
4.6789e-08
3.31405e-05
4.77686e-08
3.31421e-05
4.89279e-08
3.31439e-05
5.01476e-08
3.31461e-05
5.13636e-08
3.31481e-05
5.2209e-08
3.31497e-05
5.27877e-08
3.31513e-05
5.33966e-08
3.31529e-05
5.45456e-08
3.31544e-05
5.5771e-08
3.31559e-05
5.71861e-08
3.31577e-05
5.87355e-08
3.31596e-05
6.02609e-08
3.31615e-05
6.14291e-08
3.31634e-05
6.24385e-08
3.31655e-05
6.35488e-08
3.31678e-05
6.44844e-08
3.31699e-05
6.51483e-08
3.31718e-05
6.59473e-08
3.3174e-05
6.70336e-08
3.31766e-05
6.82697e-08
3.31791e-05
6.89666e-08
3.31813e-05
6.97906e-08
3.31835e-05
7.0973e-08
3.31863e-05
7.26996e-08
3.31895e-05
7.3848e-08
3.31927e-05
7.39287e-08
3.31952e-05
7.35911e-08
3.31975e-05
7.3852e-08
3.32005e-05
7.50351e-08
3.32051e-05
7.57463e-08
3.32106e-05
7.35681e-08
3.32156e-05
6.71253e-08
3.32185e-05
5.58598e-08
3.3219e-05
4.1466e-08
3.32176e-05
2.59768e-08
3.32154e-05
1.21778e-08
3.32127e-05
1.25832e-09
3.32099e-05
-5.06316e-09
3.32073e-05
-8.99695e-09
3.32053e-05
-8.98633e-09
3.32037e-05
-9.30674e-09
-6.25036e-09
3.59962e-05
1.97246e-09
3.59967e-05
2.09656e-09
3.59972e-05
2.7176e-09
3.59978e-05
3.77188e-09
3.59984e-05
5.14112e-09
3.59994e-05
6.66512e-09
3.60006e-05
8.27636e-09
3.60019e-05
9.93309e-09
3.60035e-05
1.14265e-08
3.60051e-05
1.27492e-08
3.60067e-05
1.38797e-08
3.60083e-05
1.48518e-08
3.60098e-05
1.56499e-08
3.60111e-05
1.63134e-08
3.60124e-05
1.68375e-08
3.60136e-05
1.7306e-08
3.60147e-05
1.77854e-08
3.60157e-05
1.82627e-08
3.60168e-05
1.88198e-08
3.6018e-05
1.94398e-08
3.60192e-05
2.01408e-08
3.60205e-05
2.08984e-08
3.60218e-05
2.17063e-08
3.60231e-05
2.25186e-08
3.60243e-05
2.32391e-08
3.60255e-05
2.38115e-08
3.60268e-05
2.42876e-08
3.6028e-05
2.48152e-08
3.60292e-05
2.53776e-08
3.60303e-05
2.59741e-08
3.60315e-05
2.66414e-08
3.60326e-05
2.71934e-08
3.60338e-05
2.7653e-08
3.60351e-05
2.82122e-08
3.60365e-05
2.88561e-08
3.60378e-05
2.96709e-08
3.6039e-05
3.05219e-08
3.60402e-05
3.11613e-08
3.60414e-05
3.1542e-08
3.60427e-05
3.19801e-08
3.60441e-05
3.27055e-08
3.60453e-05
3.36051e-08
3.60466e-05
3.42119e-08
3.60481e-05
3.47645e-08
3.60495e-05
3.54711e-08
3.60509e-05
3.62895e-08
3.60522e-05
3.7059e-08
3.60536e-05
3.77665e-08
3.6055e-05
3.8285e-08
3.60566e-05
3.90222e-08
3.60581e-05
4.00928e-08
3.60595e-05
4.09291e-08
3.60611e-05
4.15681e-08
3.60626e-05
4.24144e-08
3.6064e-05
4.32657e-08
3.60655e-05
4.38134e-08
3.60671e-05
4.44107e-08
3.60687e-05
4.51885e-08
3.60703e-05
4.61367e-08
3.60721e-05
4.72049e-08
3.60739e-05
4.82825e-08
3.60759e-05
4.93662e-08
3.6078e-05
5.01711e-08
3.60799e-05
5.08918e-08
3.60815e-05
5.17149e-08
3.60832e-05
5.29133e-08
3.60849e-05
5.40297e-08
3.60868e-05
5.52638e-08
3.60888e-05
5.67475e-08
3.60909e-05
5.82049e-08
3.60931e-05
5.92675e-08
3.60953e-05
6.01564e-08
3.60976e-05
6.12595e-08
3.60999e-05
6.22528e-08
3.61021e-05
6.28824e-08
3.61045e-05
6.3555e-08
3.6107e-05
6.45568e-08
3.61094e-05
6.58173e-08
3.61118e-05
6.65915e-08
3.61143e-05
6.72678e-08
3.61171e-05
6.81888e-08
3.61202e-05
6.96194e-08
3.61232e-05
7.08217e-08
3.6126e-05
7.11091e-08
3.61288e-05
7.08143e-08
3.6132e-05
7.06586e-08
3.61359e-05
7.1148e-08
3.61403e-05
7.13472e-08
3.61447e-05
6.91577e-08
3.61488e-05
6.30541e-08
3.6152e-05
5.2608e-08
3.61539e-05
3.95634e-08
3.61539e-05
2.60254e-08
3.6152e-05
1.40802e-08
3.61488e-05
4.47863e-09
3.61455e-05
-1.76458e-09
3.61424e-05
-5.88858e-09
3.614e-05
-6.66635e-09
3.61382e-05
-7.43693e-09
-5.43082e-09
3.91828e-05
1.68445e-09
3.91831e-05
1.80955e-09
3.91834e-05
2.44856e-09
3.91837e-05
3.44603e-09
3.91842e-05
4.68367e-09
3.91848e-05
6.07189e-09
3.91856e-05
7.46894e-09
3.91867e-05
8.81181e-09
3.9188e-05
1.00807e-08
3.91895e-05
1.13046e-08
3.9191e-05
1.23523e-08
3.91926e-05
1.32884e-08
3.91941e-05
1.41402e-08
3.91955e-05
1.49061e-08
3.91968e-05
1.55496e-08
3.9198e-05
1.61033e-08
3.91991e-05
1.66346e-08
3.92002e-05
1.71478e-08
3.92014e-05
1.76818e-08
3.92026e-05
1.82538e-08
3.92038e-05
1.89053e-08
3.92051e-05
1.96032e-08
3.92064e-05
2.03806e-08
3.92078e-05
2.11706e-08
3.92091e-05
2.19013e-08
3.92104e-05
2.2538e-08
3.92117e-05
2.29911e-08
3.9213e-05
2.3473e-08
3.92143e-05
2.40693e-08
3.92156e-05
2.46972e-08
3.92168e-05
2.54257e-08
3.9218e-05
2.60096e-08
3.92192e-05
2.64092e-08
3.92206e-05
2.68647e-08
3.9222e-05
2.74238e-08