/*--------------------------------*- C++ -*----------------------------------*\
| =========                 |                                                 |
| \\      /  F ield         | OpenFOAM: The Open Source CFD Toolbox           |
|  \\    /   O peration     | Version:  v2012                                 |
|   \\  /    A nd           | Website:  www.openfoam.com                      |
|    \\/     M anipulation  |                                                 |
\*---------------------------------------------------------------------------*/
FoamFile
{
    version     2.0;
    format      ascii;
    class       volScalarField;
    location    "0.1";
    object      p;
}
// * * * * * * * * * * * * * * * * * * * * * * * * * * * * * * * * * * * * * //

dimensions      [0 2 -2 0 0 0 0];


internalField   nonuniform List<scalar> 
2400
(
-1.42062e-11
0.000187112
0.000184627
7.90712e-05
0.000215819
0.000155468
0.000139097
0.000260613
0.000235465
0.000210735
0.000314496
0.000381261
0.000364363
0.000407029
0.000525816
0.000598065
0.000608886
0.000635545
0.00069959
0.000758056
1.59736e-05
0.000169179
0.000181665
8.34413e-05
0.000206828
0.00015984
0.000134814
0.000260152
0.000235486
0.000209338
0.00031103
0.000375639
0.000359578
0.000396861
0.000497766
0.000548184
0.000528215
0.000524164
0.00056557
0.000605167
2.28477e-05
0.000160465
0.000182221
8.38147e-05
0.000199564
0.000169607
0.000128235
0.000252723
0.000241902
0.000205569
0.000299761
0.00037064
0.000349147
0.000364966
0.000452203
0.000499158
0.000471043
0.000456938
0.000499912
0.000544557
3.85845e-05
0.000142155
0.000176412
9.44409e-05
0.00017831
0.000178211
0.000126819
0.000230433
0.000251228
0.000201378
0.000277335
0.000360001
0.000338044
0.000328584
0.000399955
0.000455484
0.000433591
0.000402887
0.000430094
0.000475111
4.88522e-05
0.000130907
0.000171298
0.000100474
0.000163726
0.000185093
0.000128382
0.000210159
0.00025403
0.000205198
0.00024854
0.000334619
0.000328172
0.000301194
0.000346462
0.000404301
0.000397047
0.00035782
0.000361956
0.00040111
6.10565e-05
0.000117782
0.000159617
0.000112045
0.000146828
0.000180732
0.000141002
0.000186341
0.000241962
0.000210895
0.000224896
0.000297336
0.000310653
0.000280082
0.000296315
0.000345024
0.000353914
0.000321601
0.000307931
0.000331399
7.00886e-05
0.000110978
0.00014854
0.000117474
0.000135626
0.000172934
0.000146673
0.000167977
0.000222231
0.000212398
0.00020737
0.000254532
0.000280415
0.000261531
0.000258629
0.000288144
0.00030359
0.000284527
0.000264205
0.000270756
7.71963e-05
0.000104367
0.00013547
0.000120859
0.000128292
0.000158741
0.000148811
0.000158215
0.000197708
0.000201538
0.000192691
0.000218906
0.000245419
0.000237456
0.000225061
0.000235885
0.000250742
0.000245709
0.000228481
0.000221539
8.15889e-05
9.89948e-05
0.000123653
0.000119427
0.000121693
0.000144701
0.000145538
0.000147696
0.000172473
0.000183493
0.00017836
0.000188618
0.000205425
0.000204331
0.000194457
0.000195983
0.000204072
0.000201367
0.000186977
0.000175226
8.35952e-05
9.44567e-05
0.000112693
0.000114498
0.000115737
0.000130776
0.000135695
0.000136535
0.000150622
0.000161062
0.000158649
0.00015997
0.000168502
0.000170586
0.000163962
0.000158528
0.000157377
0.000154358
0.000146145
0.000136571
8.34557e-05
9.10894e-05
0.000102887
0.000107043
0.000108161
0.00011704
0.000122527
0.000123376
0.000129733
0.000136084
0.000135193
0.000133565
0.000135647
0.000135321
0.000129093
0.000121787
0.000117321
0.000113417
0.000106478
9.67969e-05
8.12401e-05
8.59072e-05
9.36188e-05
9.77552e-05
9.88774e-05
0.000103459
0.000107211
0.000107498
0.000109124
0.00011142
0.000110092
0.000106547
0.000103807
0.000100567
9.47985e-05
8.75603e-05
8.06656e-05
7.39373e-05
6.6227e-05
5.74935e-05
7.72165e-05
7.99508e-05
8.44542e-05
8.73637e-05
8.79525e-05
8.94624e-05
9.0713e-05
8.97749e-05
8.84209e-05
8.713e-05
8.39834e-05
7.89552e-05
7.36633e-05
6.81763e-05
6.14644e-05
5.35155e-05
4.53031e-05
3.73569e-05
2.93709e-05
2.09668e-05
7.17606e-05
7.30588e-05
7.50892e-05
7.62477e-05
7.57222e-05
7.48966e-05
7.36605e-05
7.09877e-05
6.73546e-05
6.32625e-05
5.8124e-05
5.17393e-05
4.47149e-05
3.73547e-05
2.94391e-05
2.09397e-05
1.22103e-05
3.5311e-06
-5.11861e-06
-1.38262e-05
6.51055e-05
6.5295e-05
6.5378e-05
6.46844e-05
6.26885e-05
5.98874e-05
5.64067e-05
5.1838e-05
4.62778e-05
4.00483e-05
3.30871e-05
2.53153e-05
1.69758e-05
8.33545e-06
-5.53352e-07
-9.68624e-06
-1.89391e-05
-2.8135e-05
-3.71678e-05
-4.60065e-05
5.76036e-05
5.6883e-05
5.53867e-05
5.2952e-05
4.93586e-05
4.47796e-05
3.9348e-05
3.29731e-05
2.57094e-05
1.77681e-05
9.26464e-06
2.48637e-07
-9.14162e-06
-1.87337e-05
-2.84209e-05
-3.81376e-05
-4.77959e-05
-5.72908e-05
-6.65429e-05
-7.55101e-05
4.9654e-05
4.81744e-05
4.53797e-05
4.14005e-05
3.62572e-05
3.00697e-05
2.29653e-05
1.49949e-05
6.25019e-06
-3.09485e-06
-1.28712e-05
-2.29605e-05
-3.32446e-05
-4.35984e-05
-5.39158e-05
-6.41141e-05
-7.41178e-05
-8.38533e-05
-9.3259e-05
-0.000102295
4.18043e-05
3.97034e-05
3.58488e-05
3.05569e-05
2.40189e-05
1.64116e-05
7.89903e-06
-1.39543e-06
-1.1347e-05
-2.17973e-05
-3.25796e-05
-4.35469e-05
-5.45721e-05
-6.55429e-05
-7.63642e-05
-8.69597e-05
-9.72666e-05
-0.000107232
-0.000116814
-0.000125977
3.45836e-05
3.20807e-05
2.75056e-05
2.12818e-05
1.37137e-05
5.05373e-06
-4.49024e-06
-1.47611e-05
-2.56165e-05
-3.68939e-05
-4.84185e-05
-6.00303e-05
-7.15966e-05
-8.30089e-05
-9.41771e-05
-0.000105028
-0.000115504
-0.000125562
-0.000135172
-0.000144316
2.82123e-05
2.51088e-05
1.95738e-05
1.21544e-05
3.32416e-06
-6.53837e-06
-1.71943e-05
-2.85104e-05
-4.03576e-05
-5.2559e-05
-6.49181e-05
-7.72649e-05
-8.94724e-05
-0.000101445
-0.000113103
-0.00012438
-0.000135223
-0.000145592
-0.000155463
-0.000164824
0.000791351
0.00079633
0.0007668
0.000718892
0.000625139
0.000453699
0.000279202
0.000181016
0.000116005
5.06583e-05
2.66467e-05
4.00274e-05
3.7651e-05
5.56987e-06
-4.38935e-05
-0.000103518
-0.000160909
-0.000203723
-0.000227836
-0.000240231
-0.000262846
-0.000308096
-0.000357636
-0.000390808
-0.000414687
-0.000445788
-0.000484053
-0.000520232
-0.000552743
-0.000586781
-0.00062543
-0.000667566
-0.000710571
-0.00075201
-0.000790047
-0.000823901
-0.000854042
-0.000881743
-0.000908399
-0.000935086
-0.000962449
-0.000990784
-0.00102016
-0.00105053
-0.00108181
-0.00111392
-0.00114678
-0.00118035
-0.00121459
-0.00124948
-0.001285
-0.00132115
-0.00135791
-0.0013953
-0.00143332
-0.00147196
-0.00151124
-0.00155115
-0.00159172
-0.00163295
-0.00167485
-0.00171743
-0.00176069
-0.00180466
-0.00184934
-0.00189474
-0.00194088
-0.00198776
-0.00203541
-0.00208383
-0.00213303
-0.00218304
-0.00223386
-0.0022855
-0.00233799
-0.00239134
-0.00244555
-0.00250065
-0.00255664
-0.00261356
-0.00267139
-0.0027302
-0.0027899
-0.0028507
-0.00291229
-0.00297522
-0.00303868
-0.00310387
-0.00316922
-0.00323669
-0.0033042
-0.00337352
-0.00344387
-0.00351413
-0.00358735
-0.00365797
-0.00373033
-0.00379942
-0.00386152
-0.00391548
0.000613168
0.000594406
0.000575031
0.000570617
0.000529925
0.000409145
0.000276567
0.000196074
0.000125978
4.61778e-05
7.78085e-06
1.39552e-05
1.63748e-05
-5.47829e-06
-4.66892e-05
-0.00010205
-0.0001622
-0.000212104
-0.000238133
-0.000245945
-0.000264769
-0.000310587
-0.000361886
-0.00039512
-0.000418035
-0.000448571
-0.000486819
-0.000523007
-0.000555303
-0.000588948
-0.000627057
-0.000668489
-0.000710693
-0.000751398
-0.000788929
-0.000822566
-0.000852733
-0.000880608
-0.00090749
-0.000934391
-0.000961933
-0.000990405
-0.00101988
-0.00105033
-0.00108166
-0.00111381
-0.0011467
-0.00118029
-0.00121454
-0.00124944
-0.00128497
-0.00132112
-0.00135789
-0.00139529
-0.0014333
-0.00147195
-0.00151123
-0.00155115
-0.00159172
-0.00163295
-0.00167485
-0.00171742
-0.00176069
-0.00180466
-0.00184933
-0.00189474
-0.00194087
-0.00198776
-0.00203541
-0.00208383
-0.00213303
-0.00218304
-0.00223386
-0.0022855
-0.00233799
-0.00239134
-0.00244555
-0.00250065
-0.00255664
-0.00261356
-0.00267139
-0.0027302
-0.0027899
-0.0028507
-0.00291229
-0.00297522
-0.00303867
-0.00310387
-0.00316921
-0.00323669
-0.0033042
-0.00337352
-0.00344388
-0.00351413
-0.00358737
-0.00365796
-0.00373036
-0.00379943
-0.00386162
-0.00391566
0.000552589
0.000531347
0.000508427
0.000512826
0.000500438
0.000408285
0.000295663
0.000230448
0.000164649
7.37759e-05
1.49664e-05
4.42995e-06
3.93149e-06
-9.50895e-06
-3.94022e-05
-8.65097e-05
-0.000147615
-0.00020778
-0.000241694
-0.000246677
-0.000258854
-0.000303657
-0.000358501
-0.000393872
-0.000415914
-0.000444977
-0.000483015
-0.000520167
-0.000553647
-0.000587717
-0.000624823
-0.000663808
-0.000702894
-0.000740967
-0.00077722
-0.000811143
-0.000842797
-0.00087275
-0.000901748
-0.000930459
-0.000959371
-0.000988791
-0.00101888
-0.0010497
-0.00108126
-0.00111355
-0.00114652
-0.00118016
-0.00121445
-0.00124937
-0.00128492
-0.00132108
-0.00135786
-0.00139526
-0.00143328
-0.00147193
-0.00151122
-0.00155114
-0.00159171
-0.00163294
-0.00167484
-0.00171742
-0.00176069
-0.00180466
-0.00184933
-0.00189474
-0.00194087
-0.00198776
-0.00203541
-0.00208383
-0.00213303
-0.00218304
-0.00223386
-0.0022855
-0.00233799
-0.00239134
-0.00244555
-0.00250065
-0.00255664
-0.00261356
-0.00267139
-0.0027302
-0.0027899
-0.0028507
-0.00291229
-0.00297522
-0.00303867
-0.00310387
-0.00316921
-0.00323669
-0.0033042
-0.00337352
-0.00344388
-0.00351413
-0.00358738
-0.00365797
-0.00373039
-0.00379945
-0.00386168
-0.00391576
0.00048434
0.000459204
0.000426054
0.00041826
0.000420236
0.000357736
0.00025483
0.000197363
0.000153811
7.43219e-05
7.03868e-06
-1.67641e-05
-2.55785e-05
-3.86219e-05
-6.03883e-05
-9.63362e-05
-0.000148571
-0.000209894
-0.000254454
-0.000265107
-0.000270645
-0.000307617
-0.00036286
-0.000402016
-0.000424343
-0.00045121
-0.000488151
-0.000525538
-0.000559048
-0.000592392
-0.000628351
-0.000666044
-0.000703816
-0.00074072
-0.000776122
-0.00080957
-0.000841068
-0.000871077
-0.00090025
-0.000929186
-0.000958333
-0.000987972
-0.00101825
-0.00104923
-0.00108091
-0.00111328
-0.00114632
-0.00118001
-0.00121434
-0.00124929
-0.00128485
-0.00132103
-0.00135783
-0.00139523
-0.00143326
-0.00147192
-0.00151121
-0.00155113
-0.00159171
-0.00163294
-0.00167484
-0.00171742
-0.00176069
-0.00180466
-0.00184933
-0.00189474
-0.00194088
-0.00198776
-0.00203541
-0.00208383
-0.00213303
-0.00218304
-0.00223386
-0.0022855
-0.00233799
-0.00239134
-0.00244555
-0.00250065
-0.00255664
-0.00261356
-0.00267139
-0.0027302
-0.0027899
-0.0028507
-0.00291229
-0.00297522
-0.00303867
-0.00310387
-0.00316921
-0.0032367
-0.0033042
-0.00337352
-0.00344389
-0.00351413
-0.0035874
-0.00365797
-0.00373042
-0.00379949
-0.00386174
-0.00391588
0.000417045
0.000396264
0.000361717
0.000340459
0.00034154
0.00030977
0.00022683
0.000168588
0.000141173
8.42573e-05
1.86298e-05
-1.46762e-05
-3.29173e-05
-5.27287e-05
-7.43621e-05
-0.000103713
-0.000143969
-0.000195625
-0.000246791
-0.000272428
-0.000279021
-0.00030442
-0.000354773
-0.000399131
-0.000425151
-0.000450156
-0.000484812
-0.000522249
-0.00055639
-0.000589429
-0.000624312
-0.000660616
-0.000696914
-0.000732577
-0.00076736
-0.000800991
-0.000833362
-0.000864657
-0.000895232
-0.000925463
-0.000955677
-0.000986126
-0.00101699
-0.00104836
-0.00108031
-0.00111287
-0.00114603
-0.0011798
-0.00121419
-0.00124918
-0.00128477
-0.00132097
-0.00135778
-0.0013952
-0.00143324
-0.0014719
-0.00151119
-0.00155112
-0.0015917
-0.00163294
-0.00167484
-0.00171742
-0.00176069
-0.00180466
-0.00184934
-0.00189474
-0.00194088
-0.00198776
-0.00203541
-0.00208383
-0.00213304
-0.00218304
-0.00223386
-0.00228551
-0.00233799
-0.00239134
-0.00244555
-0.00250065
-0.00255664
-0.00261356
-0.00267139
-0.0027302
-0.0027899
-0.00285071
-0.00291229
-0.00297522
-0.00303867
-0.00310388
-0.00316921
-0.0032367
-0.0033042
-0.00337353
-0.00344389
-0.00351413
-0.00358742
-0.00365799
-0.00373045
-0.00379953
-0.0038618
-0.00391598
0.000349986
0.000337403
0.000306098
0.000277613
0.000271415
0.000259007
0.000200876
0.000141931
0.000116776
7.94075e-05
2.17679e-05
-1.84879e-05
-4.36178e-05
-6.89325e-05
-9.38745e-05
-0.00012161
-0.000154089
-0.000193884
-0.000242465
-0.000280728
-0.000296188
-0.000313867
-0.000354753
-0.000400716
-0.000431867
-0.000456672
-0.000488501
-0.00052515
-0.000559926
-0.000592936
-0.000626974
-0.00066228
-0.000697621
-0.000732341
-0.000766298
-0.00079935
-0.000831419
-0.000862647
-0.000893323
-0.000923761
-0.000954233
-0.000984948
-0.00101605
-0.00104764
-0.00107976
-0.00111245
-0.00114571
-0.00117957
-0.00121401
-0.00124905
-0.00128468
-0.0013209
-0.00135773
-0.00139517
-0.00143322
-0.00147189
-0.00151118
-0.00155112
-0.0015917
-0.00163294
-0.00167484
-0.00171743
-0.00176069
-0.00180466
-0.00184934
-0.00189475
-0.00194088
-0.00198777
-0.00203542
-0.00208383
-0.00213304
-0.00218305
-0.00223386
-0.00228551
-0.002338
-0.00239134
-0.00244555
-0.00250065
-0.00255664
-0.00261356
-0.00267139
-0.0027302
-0.0027899
-0.00285071
-0.00291229
-0.00297522
-0.00303868
-0.00310388
-0.00316921
-0.0032367
-0.0033042
-0.00337353
-0.0034439
-0.00351414
-0.00358744
-0.003658
-0.00373048
-0.00379957
-0.00386185
-0.00391608
0.000285721
0.000280627
0.000255574
0.000227618
0.000213432
0.000203953
0.000166798
0.000115703
8.66727e-05
5.98844e-05
1.40997e-05
-2.77976e-05
-5.68647e-05
-8.44834e-05
-0.000111689
-0.000138732
-0.000167576
-0.000200312
-0.000242137
-0.00028378
-0.000308321
-0.000325443
-0.000357406
-0.000400152
-0.000435141
-0.00046181
-0.000491398
-0.000525994
-0.000560384
-0.000592974
-0.000625788
-0.000659659
-0.00069381
-0.000727633
-0.000761032
-0.000793957
-0.000826315
-0.000858124
-0.000889525
-0.000920707
-0.000951858
-0.000983146
-0.00101471
-0.00104664
-0.00107903
-0.00111191
-0.00114532
-0.00117928
-0.0012138
-0.00124889
-0.00128456
-0.00132082
-0.00135767
-0.00139513
-0.00143319
-0.00147187
-0.00151118
-0.00155112
-0.0015917
-0.00163294
-0.00167485
-0.00171743
-0.0017607
-0.00180467
-0.00184935
-0.00189475
-0.00194089
-0.00198778
-0.00203542
-0.00208384
-0.00213305
-0.00218305
-0.00223387
-0.00228551
-0.002338
-0.00239134
-0.00244556
-0.00250066
-0.00255665
-0.00261357
-0.00267139
-0.00273021
-0.00278991
-0.00285071
-0.0029123
-0.00297523
-0.00303868
-0.00310388
-0.00316922
-0.00323671
-0.00330421
-0.00337353
-0.00344392
-0.00351415
-0.00358746
-0.00365803
-0.00373052
-0.00379963
-0.00386191
-0.00391616
0.000225433
0.000222393
0.000206146
0.000184007
0.000164191
0.000149836
0.000126675
8.89406e-05
5.66925e-05
3.16457e-05
-2.99365e-06
-4.10688e-05
-7.17393e-05
-0.000100001
-0.000128014
-0.000154388
-0.000181509
-0.000211342
-0.000246661
-0.000285122
-0.00031551
-0.000337004
-0.000364061
-0.000401035
-0.000436589
-0.00046546
-0.000494142
-0.000526757
-0.000560612
-0.000593422
-0.000626016
-0.000659305
-0.000692924
-0.000726309
-0.000759312
-0.00079193
-0.000824136
-0.000855947
-0.000887471
-0.000918859
-0.00095026
-0.000981808
-0.00101362
-0.00104577
-0.00107835
-0.00111138
-0.00114492
-0.00117898
-0.00121357
-0.00124872
-0.00128444
-0.00132073
-0.00135761
-0.00139509
-0.00143317
-0.00147186
-0.00151117
-0.00155112
-0.00159171
-0.00163295
-0.00167486
-0.00171745
-0.00176072
-0.00180469
-0.00184936
-0.00189477
-0.0019409
-0.00198779
-0.00203543
-0.00208385
-0.00213305
-0.00218306
-0.00223388
-0.00228552
-0.00233801
-0.00239135
-0.00244556
-0.00250066
-0.00255665
-0.00261357
-0.0026714
-0.00273021
-0.00278991
-0.00285071
-0.0029123
-0.00297523
-0.00303868
-0.00310388
-0.00316922
-0.00323671
-0.00330422
-0.00337354
-0.00344393
-0.00351416
-0.00358749
-0.00365806
-0.00373055
-0.00379968
-0.00386196
-0.00391624
0.000172492
0.000170624
0.000160012
0.00014027
0.000118498
0.000102536
8.59261e-05
5.75133e-05
2.62376e-05
1.49714e-06
-2.5775e-05
-5.84376e-05
-8.87486e-05
-0.000116302
-0.000143156
-0.00016899
-0.000195884
-0.000224824
-0.000255718
-0.000289088
-0.000320675
-0.000346535
-0.000372438
-0.000404541
-0.000438888
-0.000469905
-0.000499285
-0.0005306
-0.000563396
-0.000595802
-0.000627748
-0.000659963
-0.000692489
-0.000724992
-0.000757329
-0.000789509
-0.000821523
-0.000853364
-0.000885077
-0.000916743
-0.00094846
-0.000980323
-0.00101242
-0.00104483
-0.00107761
-0.00111082
-0.00114449
-0.00117865
-0.00121333
-0.00124855
-0.00128431
-0.00132065
-0.00135755
-0.00139505
-0.00143315
-0.00147185
-0.00151117
-0.00155113
-0.00159172
-0.00163297
-0.00167488
-0.00171746
-0.00176073
-0.0018047
-0.00184938
-0.00189478
-0.00194092
-0.0019878
-0.00203545
-0.00208386
-0.00213307
-0.00218307
-0.00223389
-0.00228553
-0.00233801
-0.00239136
-0.00244557
-0.00250066
-0.00255666
-0.00261357
-0.0026714
-0.00273021
-0.00278991
-0.00285072
-0.0029123
-0.00297523
-0.00303868
-0.00310389
-0.00316922
-0.00323671
-0.00330422
-0.00337355
-0.00344394
-0.00351417
-0.00358751
-0.00365809
-0.00373059
-0.00379973
-0.00386202
-0.00391631
0.000129571
0.000122982
0.000111735
9.5744e-05
7.85465e-05
6.21991e-05
4.46127e-05
2.18327e-05
-3.80349e-06
-2.74783e-05
-5.17268e-05
-7.94361e-05
-0.000107333
-0.000133423
-0.000158913
-0.000184654
-0.000211425
-0.000238972
-0.000266804
-0.000296457
-0.000327428
-0.000356142
-0.00038302
-0.000412336
-0.000444293
-0.000475324
-0.000504716
-0.000534631
-0.000565816
-0.00059731
-0.000628661
-0.000660199
-0.000692073
-0.000724089
-0.000756081
-0.000788014
-0.000819885
-0.000851689
-0.000883455
-0.000915239
-0.000947115
-0.000979157
-0.00101144
-0.00104402
-0.00107696
-0.0011103
-0.00114408
-0.00117834
-0.0012131
-0.00124838
-0.00128419
-0.00132056
-0.0013575
-0.00139502
-0.00143313
-0.00147185
-0.00151118
-0.00155114
-0.00159174
-0.00163299
-0.00167491
-0.00171749
-0.00176076
-0.00180473
-0.00184941
-0.00189481
-0.00194094
-0.00198782
-0.00203547
-0.00208388
-0.00213308
-0.00218308
-0.0022339
-0.00228554
-0.00233802
-0.00239137
-0.00244557
-0.00250067
-0.00255666
-0.00261358
-0.0026714
-0.00273022
-0.00278992
-0.00285072
-0.0029123
-0.00297524
-0.00303869
-0.00310389
-0.00316923
-0.00323672
-0.00330423
-0.00337356
-0.00344396
-0.00351419
-0.00358754
-0.00365813
-0.00373064
-0.00379979
-0.00386207
-0.00391637
8.69996e-05
7.7993e-05
6.8181e-05
5.56862e-05
3.99978e-05
2.26172e-05
5.53599e-06
-1.27025e-05
-3.40334e-05
-5.65159e-05
-7.89785e-05
-0.000102803
-0.000127427
-0.000151661
-0.000176348
-0.000201997
-0.000228027
-0.000254135
-0.000280652
-0.000308532
-0.00033771
-0.000366112
-0.000392984
-0.000420508
-0.000449991
-0.000479982
-0.000509326
-0.000538766
-0.000569056
-0.000599873
-0.000630766
-0.000661761
-0.000692984
-0.000724385
-0.000755863
-0.000787386
-0.000818959
-0.000850586
-0.000882284
-0.000914087
-0.00094604
-0.000978195
-0.00101061
-0.00104332
-0.00107638
-0.00110984
-0.00114373
-0.00117807
-0.0012129
-0.00124823
-0.0012841
-0.0013205
-0.00135747
-0.00139501
-0.00143314
-0.00147187
-0.00151121
-0.00155118
-0.00159178
-0.00163303
-0.00167494
-0.00171753
-0.0017608
-0.00180476
-0.00184944
-0.00189484
-0.00194097
-0.00198785
-0.00203549
-0.0020839
-0.0021331
-0.0021831
-0.00223391
-0.00228556
-0.00233804
-0.00239138
-0.00244558
-0.00250068
-0.00255667
-0.00261359
-0.00267141
-0.00273022
-0.00278992
-0.00285072
-0.00291231
-0.00297524
-0.00303869
-0.0031039
-0.00316924
-0.00323673
-0.00330424
-0.00337357
-0.00344398
-0.00351422
-0.00358757
-0.00365817
-0.00373068
-0.00379984
-0.00386213
-0.00391643
4.83693e-05
3.89821e-05
2.8566e-05
1.60556e-05
1.60791e-06
-1.36949e-05
-2.93935e-05
-4.64027e-05
-6.54547e-05
-8.5547e-05
-0.000105777
-0.000126801
-0.000149169
-0.000172686
-0.000197041
-0.000221545
-0.000245744
-0.000270191
-0.000295441
-0.000321522
-0.000348336
-0.000375399
-0.000402224
-0.000429336
-0.000457512
-0.000486442
-0.000515372
-0.000544313
-0.000573691
-0.000603549
-0.00063366
-0.000663955
-0.000694495
-0.000725282
-0.00075626
-0.000787392
-0.00081867
-0.000850095
-0.000881673
-0.000913424
-0.000945379
-0.000977572
-0.00101004
-0.00104283
-0.00107598
-0.00110951
-0.00114347
-0.00117787
-0.00121276
-0.00124814
-0.00128404
-0.00132048
-0.00135747
-0.00139503
-0.00143317
-0.00147191
-0.00151125
-0.00155123
-0.00159183
-0.00163308
-0.001675
-0.00171758
-0.00176085
-0.00180481
-0.00184948
-0.00189488
-0.00194101
-0.00198788
-0.00203552
-0.00208393
-0.00213313
-0.00218312
-0.00223394
-0.00228557
-0.00233805
-0.00239139
-0.0024456
-0.00250069
-0.00255668
-0.0026136
-0.00267142
-0.00273023
-0.00278993
-0.00285073
-0.00291232
-0.00297525
-0.0030387
-0.00310391
-0.00316924
-0.00323674
-0.00330426
-0.00337359
-0.003444
-0.00351424
-0.0035876
-0.00365821
-0.00373073
-0.0037999
-0.00386218
-0.00391649
1.18389e-05
1.80708e-06
-9.0287e-06
-2.08049e-05
-3.37013e-05
-4.78083e-05
-6.29512e-05
-7.88781e-05
-9.57194e-05
-0.00011364
-0.000132572
-0.000152674
-0.000174031
-0.000196034
-0.000218006
-0.000240021
-0.000262655
-0.000286226
-0.000310527
-0.000335311
-0.000360711
-0.000386753
-0.000413069
-0.000439536
-0.000466504
-0.000494116
-0.000522096
-0.000550288
-0.000578835
-0.000607833
-0.000637202
-0.000666859
-0.000696798
-0.000727022
-0.000757502
-0.000788214
-0.000819147
-0.0008503
-0.00088168
-0.000913297
-0.000945172
-0.00097733
-0.0010098
-0.0010426
-0.00107578
-0.00110935
-0.00114334
-0.00117779
-0.00121271
-0.00124812
-0.00128404
-0.0013205
-0.00135751
-0.00139508
-0.00143323
-0.00147198
-0.00151133
-0.0015513
-0.00159191
-0.00163316
-0.00167507
-0.00171765
-0.00176091
-0.00180487
-0.00184954
-0.00189493
-0.00194106
-0.00198793
-0.00203556
-0.00208397
-0.00213316
-0.00218315
-0.00223396
-0.0022856
-0.00233807
-0.00239141
-0.00244561
-0.00250071
-0.00255669
-0.00261361
-0.00267143
-0.00273024
-0.00278993
-0.00285074
-0.00291232
-0.00297525
-0.00303871
-0.00310391
-0.00316925
-0.00323675
-0.00330427
-0.0033736
-0.00344402
-0.00351427
-0.00358764
-0.00365825
-0.00373077
-0.00379995
-0.00386224
-0.00391655
-2.29292e-05
-3.2776e-05
-4.33355e-05
-5.47166e-05
-6.70743e-05
-8.03957e-05
-9.4521e-05
-0.000109412
-0.000125275
-0.00014225
-0.000160171
-0.000178779
-0.000197899
-0.000217497
-0.0002378
-0.000259068
-0.000281181
-0.000303814
-0.000326839
-0.000350361
-0.00037451
-0.000399264
-0.000424449
-0.000449971
-0.000475955
-0.000502517
-0.000529575
-0.000557006
-0.000584809
-0.00061303
-0.000641653
-0.00067063
-0.00069994
-0.000729577
-0.000759532
-0.000789788
-0.000820336
-0.000851172
-0.000882299
-0.000913723
-0.000945456
-0.000977514
-0.00100992
-0.00104268
-0.00107584
-0.0011094
-0.0011434
-0.00117786
-0.00121278
-0.0012482
-0.00128414
-0.00132061
-0.00135762
-0.00139519
-0.00143335
-0.00147209
-0.00151144
-0.00155141
-0.00159201
-0.00163326
-0.00167516
-0.00171774
-0.001761
-0.00180495
-0.00184961
-0.001895
-0.00194112
-0.00198798
-0.00203561
-0.00208401
-0.0021332
-0.00218319
-0.00223399
-0.00228562
-0.0023381
-0.00239143
-0.00244563
-0.00250072
-0.00255671
-0.00261362
-0.00267144
-0.00273025
-0.00278994
-0.00285075
-0.00291233
-0.00297526
-0.00303871
-0.00310392
-0.00316927
-0.00323676
-0.00330429
-0.00337362
-0.00344404
-0.0035143
-0.00358767
-0.00365829
-0.00373082
-0.0038
-0.00386229
-0.0039166
-5.50431e-05
-6.47607e-05
-7.51966e-05
-8.63578e-05
-9.82656e-05
-0.000110943
-0.00012441
-0.00013866
-0.000153665
-0.000169393
-0.000185794
-0.000202865
-0.000220722
-0.000239498
-0.000259135
-0.000279407
-0.000300138
-0.000321342
-0.000343142
-0.000365582
-0.000388626
-0.00041224
-0.000436389
-0.000461028
-0.000486151
-0.000511787
-0.000537925
-0.000564515
-0.00059153
-0.000618979
-0.000646858
-0.000675147
-0.000703825
-0.000732882
-0.000762309
-0.000792095
-0.000822231
-0.000852714
-0.000883543
-0.000914722
-0.000946258
-0.00097816
-0.00101044
-0.00104312
-0.00107621
-0.00110972
-0.00114368
-0.00117811
-0.00121302
-0.00124843
-0.00128435
-0.00132081
-0.00135781
-0.00139538
-0.00143353
-0.00147226
-0.0015116
-0.00155156
-0.00159216
-0.00163339
-0.00167529
-0.00171785
-0.0017611
-0.00180505
-0.0018497
-0.00189508
-0.00194119
-0.00198805
-0.00203567
-0.00208406
-0.00213325
-0.00218323
-0.00223403
-0.00228566
-0.00233813
-0.00239146
-0.00244565
-0.00250074
-0.00255672
-0.00261363
-0.00267145
-0.00273026
-0.00278995
-0.00285076
-0.00291234
-0.00297527
-0.00303872
-0.00310393
-0.00316928
-0.00323678
-0.0033043
-0.00337364
-0.00344407
-0.00351433
-0.00358771
-0.00365833
-0.00373086
-0.00380005
-0.00386234
-0.00391666
-8.45789e-05
-9.4232e-05
-0.000104514
-0.000115427
-0.000126983
-0.000139199
-0.000152074
-0.000165595
-0.000179766
-0.000194626
-0.000210222
-0.00022658
-0.000243681
-0.000261455
-0.00027982
-0.000298764
-0.000318342
-0.000338589
-0.000359478
-0.000380959
-0.000403009
-0.000425632
-0.00044882
-0.000472543
-0.00049678
-0.000521534
-0.000546804
-0.000572574
-0.00059882
-0.000625534
-0.000652708
-0.000680332
-0.000708391
-0.000736874
-0.000765772
-0.000795078
-0.000824784
-0.000854888
-0.000885387
-0.000916282
-0.000947577
-0.000979278
-0.00101139
-0.00104393
-0.00107691
-0.00111034
-0.00114423
-0.0011786
-0.00121346
-0.00124883
-0.00128472
-0.00132115
-0.00135813
-0.00139567
-0.0014338
-0.00147251
-0.00151184
-0.00155178
-0.00159236
-0.00163358
-0.00167546
-0.00171801
-0.00176124
-0.00180518
-0.00184982
-0.00189518
-0.00194129
-0.00198813
-0.00203575
-0.00208413
-0.00213331
-0.00218328
-0.00223408
-0.0022857
-0.00233816
-0.00239149
-0.00244568
-0.00250076
-0.00255674
-0.00261365
-0.00267147
-0.00273027
-0.00278997
-0.00285077
-0.00291235
-0.00297528
-0.00303874
-0.00310395
-0.00316929
-0.00323679
-0.00330432
-0.00337366
-0.00344409
-0.00351436
-0.00358774
-0.00365837
-0.00373091
-0.0038001
-0.00386239
-0.00391671
-0.000111353
-0.000120919
-0.000131048
-0.000141746
-0.000153016
-0.000164866
-0.000177305
-0.000190351
-0.00020402
-0.000218326
-0.000233271
-0.000248845
-0.000265038
-0.000281854
-0.000299316
-0.000317438
-0.000336206
-0.000355586
-0.000375557
-0.000396114
-0.000417259
-0.000438989
-0.000461292
-0.000484154
-0.000507561
-0.000531508
-0.000555987
-0.00058099
-0.000606503
-0.000632513
-0.000659014
-0.000685997
-0.000713452
-0.000741371
-0.000769744
-0.000798567
-0.000827834
-0.00085754
-0.000887684
-0.000918266
-0.000949287
-0.00098075
-0.00101266
-0.00104503
-0.00107786
-0.00111116
-0.00114495
-0.00117923
-0.00121402
-0.00124932
-0.00128516
-0.00132155
-0.00135849
-0.001396
-0.0014341
-0.00147279
-0.00151209
-0.00155201
-0.00159256
-0.00163377
-0.00167563
-0.00171817
-0.00176139
-0.00180531
-0.00184994
-0.00189529
-0.00194138
-0.00198822
-0.00203582
-0.0020842
-0.00213337
-0.00218334
-0.00223412
-0.00228574
-0.0023382
-0.00239152
-0.00244571
-0.00250079
-0.00255677
-0.00261367
-0.00267148
-0.00273029
-0.00278998
-0.00285078
-0.00291236
-0.00297529
-0.00303875
-0.00310396
-0.0031693
-0.00323681
-0.00330434
-0.00337368
-0.00344412
-0.00351438
-0.00358777
-0.00365841
-0.00373095
-0.00380014
-0.00386243
-0.00391675
-0.000135109
-0.000144678
-0.000154734
-0.000165293
-0.000176371
-0.00018798
-0.000200132
-0.000212835
-0.000226096
-0.000239924
-0.000254334
-0.000269338
-0.000284949
-0.000301175
-0.000318011
-0.00033545
-0.000353483
-0.000372109
-0.00039133
-0.000411144
-0.000431546
-0.000452529
-0.000474085
-0.000496207
-0.000518888
-0.000542122
-0.0005659
-0.000590217
-0.000615064
-0.000640432
-0.000666315
-0.000692704
-0.000719593
-0.000746975
-0.000774843
-0.000803193
-0.000832019
-0.000861318
-0.000891088
-0.000921329
-0.00095204
-0.000983225
-0.00101489
-0.00104703
-0.00107966
-0.00111278
-0.00114641
-0.00118055
-0.00121521
-0.0012504
-0.00128614
-0.00132243
-0.00135929
-0.00139673
-0.00143475
-0.00147338
-0.00151262
-0.00155249
-0.001593
-0.00163416
-0.00167598
-0.00171848
-0.00176167
-0.00180556
-0.00185016
-0.00189549
-0.00194156
-0.00198837
-0.00203596
-0.00208432
-0.00213347
-0.00218343
-0.0022342
-0.00228581
-0.00233826
-0.00239157
-0.00244575
-0.00250083
-0.0025568
-0.0026137
-0.00267151
-0.00273031
-0.00279
-0.0028508
-0.00291238
-0.00297531
-0.00303876
-0.00310397
-0.00316932
-0.00323682
-0.00330436
-0.0033737
-0.00344414
-0.00351441
-0.00358781
-0.00365844
-0.00373099
-0.00380018
-0.00386248
-0.00391679
-0.000153389
-0.000162872
-0.000172821
-0.000183254
-0.000194178
-0.0002056
-0.000217524
-0.000229957
-0.000242907
-0.000256385
-0.000270407
-0.000284985
-0.000300129
-0.000315846
-0.000332139
-0.000349009
-0.000366459
-0.00038449
-0.000403104
-0.000422301
-0.000442081
-0.000462439
-0.000483373
-0.00050488
-0.000526956
-0.000549597
-0.000572797
-0.000596552
-0.000620856
-0.000645703
-0.000671087
-0.000697003
-0.000723444
-0.000750406
-0.000777882
-0.000805869
-0.000834362
-0.000863357
-0.000892853
-0.000922849
-0.000953342
-0.000984336
-0.00101583
-0.00104783
-0.00108034
-0.00111336
-0.0011469
-0.00118096
-0.00121556
-0.00125071
-0.0012864
-0.00132266
-0.00135949
-0.00139691
-0.00143491
-0.00147353
-0.00151276
-0.00155262
-0.00159311
-0.00163427
-0.00167608
-0.00171857
-0.00176175
-0.00180563
-0.00185023
-0.00189555
-0.00194161
-0.00198843
-0.00203601
-0.00208436
-0.00213351
-0.00218346
-0.00223423
-0.00228584
-0.00233828
-0.00239159
-0.00244577
-0.00250084
-0.00255681
-0.00261371
-0.00267152
-0.00273032
-0.00279001
-0.00285081
-0.00291239
-0.00297532
-0.00303877
-0.00310398
-0.00316933
-0.00323683
-0.00330437
-0.00337372
-0.00344416
-0.00351443
-0.00358783
-0.00365847
-0.00373102
-0.00380021
-0.00386251
-0.00391683
-0.000174087
-0.000183723
-0.000193768
-0.000204228
-0.000215115
-0.000226444
-0.000238233
-0.000250499
-0.000263257
-0.000276521
-0.000290298
-0.000304597
-0.000319423
-0.000334784
-0.000350685
-0.000367133
-0.000384133
-0.000401691
-0.000419808
-0.000438488
-0.000457731
-0.000477536
-0.000497905
-0.000518837
-0.00054033
-0.000562383
-0.000584992
-0.000608155
-0.000631869
-0.00065613
-0.000680935
-0.000706281
-0.000732164
-0.000758579
-0.000785525
-0.000812998
-0.000840996
-0.000869516
-0.000898558
-0.000928121
-0.000958205
-0.000988811
-0.00101994
-0.0010516
-0.00108379
-0.00111651
-0.00114977
-0.00118358
-0.00121795
-0.00125287
-0.00128836
-0.00132444
-0.0013611
-0.00139835
-0.00143622
-0.0014747
-0.00151381
-0.00155355
-0.00159395
-0.00163501
-0.00167674
-0.00171916
-0.00176227
-0.00180609
-0.00185063
-0.00189591
-0.00194192
-0.0019887
-0.00203624
-0.00208457
-0.00213369
-0.00218361
-0.00223436
-0.00228595
-0.00233838
-0.00239167
-0.00244584
-0.0025009
-0.00255686
-0.00261375
-0.00267156
-0.00273035
-0.00279004
-0.00285083
-0.00291241
-0.00297533