/*--------------------------------*- C++ -*----------------------------------*\
| =========                 |                                                 |
| \\      /  F ield         | OpenFOAM: The Open Source CFD Toolbox           |
|  \\    /   O peration     | Version:  v2012                                 |
|   \\  /    A nd           | Website:  www.openfoam.com                      |
|    \\/     M anipulation  |                                                 |
\*---------------------------------------------------------------------------*/
FoamFile
{
    version     2.0;
    format      ascii;
    class       volVectorField;
    location    "0.1";
    object      U;
}
// * * * * * * * * * * * * * * * * * * * * * * * * * * * * * * * * * * * * * //

dimensions      [0 1 -1 0 0 0 0];


internalField   nonuniform List<vector> 
2400
(
(0.999053 -0.000269504 0)
(1.00175 0.000298433 0)
(0.99778 8.79873e-05 0)
(1.00231 -0.000391183 0)
(0.997948 0.000334379 0)
(1.00156 0.000108349 0)
(0.998599 -0.0001928 0)
(1.00111 -0.000120313 0)
(0.998618 0.00010613 0)
(1.00112 0.000166517 0)
(0.998712 7.30481e-05 0)
(1.00065 -4.76707e-05 0)
(0.998866 -9.14981e-05 0)
(1.00055 -4.38376e-05 0)
(0.998814 5.08791e-05 0)
(1.00018 0.00013438 0)
(0.998859 0.000200853 0)
(1.00007 0.000245905 0)
(0.998831 0.000282805 0)
(0.999806 0.000320988 0)
(0.999974 -0.000322884 0)
(0.999761 0.000342085 0)
(1.00011 0.000124739 0)
(1.00007 -0.000460929 0)
(0.999598 0.000407606 0)
(1.00016 0.000121887 0)
(1.00014 -0.000230758 0)
(0.999669 -8.63808e-05 0)
(0.99974 0.000131565 0)
(0.999986 0.000169656 0)
(0.999855 9.78737e-05 0)
(0.999759 -1.11814e-05 0)
(0.999767 -5.82902e-05 0)
(0.9997 1.91433e-06 0)
(0.999531 0.000129985 0)
(0.999487 0.000244251 0)
(0.99957 0.000336508 0)
(0.999619 0.000416485 0)
(0.999566 0.000492053 0)
(0.999516 0.000555637 0)
(0.999997 -0.00017723 0)
(0.999743 0.000133492 0)
(1.00012 0.000161299 0)
(1.00004 -0.000288884 0)
(0.999647 0.000204027 0)
(1.00011 0.000140744 0)
(1.00017 -0.000168491 0)
(0.999677 9.63464e-06 0)
(0.999736 9.69724e-05 0)
(0.999978 6.91205e-05 0)
(0.999881 8.73823e-05 0)
(0.999758 7.24937e-05 0)
(0.999777 3.90178e-05 0)
(0.999727 7.91838e-05 0)
(0.999581 0.000180447 0)
(0.999531 0.000272538 0)
(0.999625 0.000323792 0)
(0.999689 0.000369024 0)
(0.999634 0.000430775 0)
(0.999577 0.000478904 0)
(1 -0.000167743 0)
(0.999813 0.000105634 0)
(1.00003 0.000184658 0)
(1.00006 -0.000282765 0)
(0.999758 0.000178918 0)
(1.00001 0.000183218 0)
(1.00011 -0.000176094 0)
(0.999764 7.83707e-06 0)
(0.999773 0.000141706 0)
(0.999972 8.0183e-05 0)
(0.999865 9.12531e-05 0)
(0.999725 0.00011469 0)
(0.999777 9.07526e-05 0)
(0.999797 0.000114099 0)
(0.999681 0.000211337 0)
(0.999603 0.000309226 0)
(0.999657 0.000353576 0)
(0.999725 0.000373769 0)
(0.999687 0.000424278 0)
(0.999622 0.000484487 0)
(1.00001 -9.61364e-05 0)
(0.99985 2.84931e-05 0)
(1 0.000146901 0)
(1.00006 -0.000144506 0)
(0.999806 7.06811e-05 0)
(0.999964 0.000162382 0)
(1.0001 -8.39496e-05 0)
(0.999821 1.05603e-05 0)
(0.999764 0.000145469 0)
(0.999949 7.52212e-05 0)
(0.999902 7.24698e-05 0)
(0.999757 0.000152357 0)
(0.999777 0.000165216 0)
(0.999819 0.000158467 0)
(0.999742 0.00021731 0)
(0.999658 0.000304337 0)
(0.999688 0.000355735 0)
(0.999767 0.000374019 0)
(0.999766 0.000408082 0)
(0.999701 0.000469197 0)
(1.00001 -7.32507e-05 0)
(0.999898 5.09585e-06 0)
(0.999974 0.000134436 0)
(1.00004 -9.83358e-05 0)
(0.999878 3.29441e-05 0)
(0.999935 0.000166631 0)
(1.00005 -3.65802e-05 0)
(0.999879 -8.3578e-06 0)
(0.999803 0.000150167 0)
(0.999927 0.000118508 0)
(0.999914 8.27882e-05 0)
(0.999786 0.000152226 0)
(0.999779 0.000196847 0)
(0.999841 0.000196419 0)
(0.999815 0.000230907 0)
(0.999739 0.00030544 0)
(0.999731 0.000364461 0)
(0.999785 0.000387186 0)
(0.999809 0.000404511 0)
(0.999768 0.000447749 0)
(1.00001 -4.29865e-05 0)
(0.999928 -9.8512e-06 0)
(0.999964 9.24386e-05 0)
(1.00002 -2.9947e-05 0)
(0.999917 1.51908e-05 0)
(0.999923 0.000122667 0)
(1.00002 2.31793e-05 0)
(0.999923 1.81464e-05 0)
(0.999832 0.000132174 0)
(0.999901 0.00013584 0)
(0.999925 0.000105517 0)
(0.999843 0.00016052 0)
(0.99981 0.000222864 0)
(0.999848 0.000234061 0)
(0.999849 0.000247439 0)
(0.999799 0.00029837 0)
(0.999781 0.000355403 0)
(0.999817 0.000387166 0)
(0.999851 0.000402807 0)
(0.999837 0.000430826 0)
(1 -2.71787e-05 0)
(0.999954 -1.23413e-05 0)
(0.999964 7.02466e-05 0)
(1 3.15484e-06 0)
(0.999947 1.10045e-05 0)
(0.999932 0.000102368 0)
(0.999986 5.99228e-05 0)
(0.999942 3.4056e-05 0)
(0.999873 0.000115209 0)
(0.999903 0.000153342 0)
(0.99993 0.00013874 0)
(0.99988 0.000165681 0)
(0.99984 0.000218859 0)
(0.999862 0.000246693 0)
(0.999883 0.000263592 0)
(0.999864 0.000299887 0)
(0.999841 0.000345651 0)
(0.999849 0.000377814 0)
(0.999873 0.000396011 0)
(0.999881 0.000415626 0)
(1 -1.5448e-05 0)
(0.99997 -8.42371e-06 0)
(0.999968 4.82189e-05 0)
(0.999995 2.46866e-05 0)
(0.999965 2.36754e-05 0)
(0.999943 8.21661e-05 0)
(0.99997 7.67469e-05 0)
(0.999956 6.37138e-05 0)
(0.999909 0.000114951 0)
(0.999911 0.00015577 0)
(0.999931 0.000156894 0)
(0.999911 0.000175397 0)
(0.999885 0.000221315 0)
(0.999892 0.000257371 0)
(0.999908 0.000276046 0)
(0.9999 0.000298104 0)
(0.999885 0.000330363 0)
(0.99989 0.000362346 0)
(0.999912 0.000386516 0)
(0.999927 0.000405267 0)
(1 -8.13004e-06 0)
(0.999982 -3.13564e-06 0)
(0.999975 3.64938e-05 0)
(0.999989 3.54314e-05 0)
(0.999975 3.40142e-05 0)
(0.999956 7.24763e-05 0)
(0.999967 8.66641e-05 0)
(0.999963 8.49363e-05 0)
(0.999935 0.000115692 0)
(0.999929 0.000153458 0)
(0.999942 0.000170532 0)
(0.999938 0.000188912 0)
(0.999922 0.000221729 0)
(0.999919 0.000252954 0)
(0.99993 0.000274379 0)
(0.999936 0.000295467 0)
(0.999935 0.000323116 0)
(0.999938 0.000350944 0)
(0.999947 0.000372529 0)
(0.999958 0.000388694 0)
(1 -3.47381e-06 0)
(0.999989 2.78106e-06 0)
(0.999981 3.02237e-05 0)
(0.999987 3.99529e-05 0)
(0.999981 4.4178e-05 0)
(0.999969 7.01315e-05 0)
(0.999971 8.97334e-05 0)
(0.99997 9.80601e-05 0)
(0.999957 0.000121213 0)
(0.999951 0.000153271 0)
(0.999957 0.000175769 0)
(0.999958 0.000194245 0)
(0.999952 0.000219476 0)
(0.999952 0.000247504 0)
(0.999961 0.000271337 0)
(0.999969 0.000291703 0)
(0.999971 0.000312258 0)
(0.999974 0.000332871 0)
(0.999982 0.000351759 0)
(0.999993 0.000368266 0)
(1 -5.12809e-07 0)
(0.999993 7.50379e-06 0)
(0.999987 2.78906e-05 0)
(0.999989 4.2088e-05 0)
(0.999986 5.11753e-05 0)
(0.999979 7.06317e-05 0)
(0.999979 9.09215e-05 0)
(0.99998 0.000105737 0)
(0.999975 0.000125853 0)
(0.999971 0.000151916 0)
(0.999975 0.000175 0)
(0.999979 0.000195038 0)
(0.99998 0.000217262 0)
(0.999983 0.000240888 0)
(0.999989 0.000262013 0)
(0.999997 0.000280172 0)
(1 0.000297636 0)
(1.00001 0.000315348 0)
(1.00002 0.000332109 0)
(1.00003 0.000346845 0)
(1 1.34234e-06 0)
(0.999996 1.10178e-05 0)
(0.999992 2.77248e-05 0)
(0.999992 4.29712e-05 0)
(0.999991 5.51687e-05 0)
(0.999989 7.19324e-05 0)
(0.999988 9.10239e-05 0)
(0.99999 0.000108296 0)
(0.99999 0.00012729 0)
(0.999991 0.000149534 0)
(0.999995 0.000171382 0)
(1 0.000191245 0)
(1 0.000210773 0)
(1.00001 0.000230425 0)
(1.00002 0.000248981 0)
(1.00003 0.000265798 0)
(1.00003 0.000281335 0)
(1.00004 0.000295975 0)
(1.00005 0.000309518 0)
(1.00006 0.000321772 0)
(1 2.52769e-06 0)
(0.999998 1.33894e-05 0)
(0.999996 2.8174e-05 0)
(0.999996 4.31105e-05 0)
(0.999997 5.66915e-05 0)
(0.999997 7.2178e-05 0)
(0.999998 8.9678e-05 0)
(1 0.00010717 0)
(1 0.000125352 0)
(1.00001 0.00014495 0)
(1.00001 0.000164559 0)
(1.00002 0.000182942 0)
(1.00003 0.000200439 0)
(1.00003 0.000217402 0)
(1.00004 0.000233416 0)
(1.00005 0.000248018 0)
(1.00006 0.000261273 0)
(1.00007 0.000273502 0)
(1.00008 0.000284835 0)
(1.00009 0.000295218 0)
(1 3.29767e-06 0)
(0.999999 1.47e-05 0)
(0.999999 2.83208e-05 0)
(1 4.24016e-05 0)
(1 5.60305e-05 0)
(1 7.0539e-05 0)
(1.00001 8.64494e-05 0)
(1.00001 0.000102955 0)
(1.00002 0.000119871 0)
(1.00002 0.000137281 0)
(1.00003 0.000154578 0)
(1.00004 0.000171038 0)
(1.00005 0.000186512 0)
(1.00006 0.000201065 0)
(1.00006 0.000214611 0)
(1.00007 0.000227019 0)
(1.00008 0.000238308 0)
(1.00009 0.000248604 0)
(1.0001 0.000257992 0)
(1.00011 0.000266502 0)
(1 3.68773e-06 0)
(1 1.50078e-05 0)
(1 2.75932e-05 0)
(1 4.05089e-05 0)
(1.00001 5.33359e-05 0)
(1.00001 6.66648e-05 0)
(1.00002 8.0918e-05 0)
(1.00002 9.58115e-05 0)
(1.00003 0.000111013 0)
(1.00004 0.000126308 0)
(1.00005 0.000141315 0)
(1.00006 0.000155593 0)
(1.00007 0.000168929 0)
(1.00007 0.000181291 0)
(1.00008 0.000192675 0)
(1.00009 0.00020306 0)
(1.0001 0.000212465 0)
(1.00011 0.00022096 0)
(1.00012 0.000228632 0)
(1.00013 0.000235552 0)
(1 3.72513e-06 0)
(1 1.43266e-05 0)
(1 2.56434e-05 0)
(1.00001 3.70758e-05 0)
(1.00001 4.85036e-05 0)
(1.00002 6.02693e-05 0)
(1.00003 7.26661e-05 0)
(1.00003 8.55734e-05 0)
(1.00004 9.86948e-05 0)
(1.00005 0.000111729 0)
(1.00006 0.000124376 0)
(1.00007 0.000136352 0)
(1.00008 0.000147488 0)
(1.00009 0.000157727 0)
(1.0001 0.00016707 0)
(1.00011 0.00017554 0)
(1.00012 0.00018318 0)
(1.00013 0.000190053 0)
(1.00014 0.000196232 0)
(1.00015 0.000201783 0)
(1 3.47097e-06 0)
(1 1.27728e-05 0)
(1.00001 2.24003e-05 0)
(1.00001 3.19433e-05 0)
(1.00002 4.14209e-05 0)
(1.00002 5.10937e-05 0)
(1.00003 6.11645e-05 0)
(1.00004 7.157e-05 0)
(1.00005 8.2085e-05 0)
(1.00006 9.24412e-05 0)
(1.00007 0.000102403 0)
(1.00008 0.000111776 0)
(1.00009 0.000120445 0)
(1.00011 0.000128363 0)
(1.00012 0.000135538 0)
(1.00013 0.000142001 0)
(1.00014 0.000147797 0)
(1.00015 0.000152983 0)
(1.00016 0.000157618 0)
(1.00017 0.000161761 0)
(1 3.05171e-06 0)
(1 1.09514e-05 0)
(1.00001 1.90696e-05 0)
(1.00001 2.71322e-05 0)
(1.00002 3.5202e-05 0)
(1.00003 4.34511e-05 0)
(1.00004 5.19792e-05 0)
(1.00005 6.0726e-05 0)
(1.00006 6.95201e-05 0)
(1.00007 7.81429e-05 0)
(1.00008 8.63947e-05 0)
(1.00009 9.41217e-05 0)
(1.0001 0.000101237 0)
(1.00012 0.000107712 0)
(1.00013 0.000113559 0)
(1.00014 0.000118812 0)
(1.00015 0.000123517 0)
(1.00016 0.000127723 0)
(1.00017 0.000131479 0)
(1.00018 0.000134834 0)
(1 1.40834e-06 0)
(1 5.04729e-06 0)
(1.00001 8.83548e-06 0)
(1.00002 1.2658e-05 0)
(1.00002 1.6549e-05 0)
(1.00003 2.05648e-05 0)
(1.00004 2.47236e-05 0)
(1.00005 2.89841e-05 0)
(1.00007 3.32659e-05 0)
(1.00008 3.74631e-05 0)
(1.00009 4.14779e-05 0)
(1.0001 4.52343e-05 0)
(1.00012 4.86924e-05 0)
(1.00013 5.18392e-05 0)
(1.00014 5.46838e-05 0)
(1.00015 5.72449e-05 0)
(1.00016 5.95468e-05 0)
(1.00017 6.1614e-05 0)
(1.00018 6.3471e-05 0)
(1.00019 6.51396e-05 0)
(0.998765 0.000375266 0)
(0.997757 0.000454624 0)
(0.996798 0.00055157 0)
(0.995815 0.000651912 0)
(0.994814 0.000731501 0)
(0.993916 0.000780695 0)
(0.993004 0.000801561 0)
(0.991914 0.000799752 0)
(0.990788 0.000776658 0)
(0.989719 0.00074665 0)
(0.988589 0.000739005 0)
(0.98738 0.00076295 0)
(0.986171 0.000791556 0)
(0.984964 0.000805025 0)
(0.983746 0.000810927 0)
(0.98252 0.000808286 0)
(0.981277 0.000794755 0)
(0.980015 0.000789495 0)
(0.978715 0.000804412 0)
(0.977351 0.000820991 0)
(0.975965 0.00081703 0)
(0.974615 0.000800618 0)
(0.973274 0.0007983 0)
(0.971871 0.000817413 0)
(0.970397 0.000835085 0)
(0.968899 0.000826498 0)
(0.967425 0.000796179 0)
(0.965981 0.000775716 0)
(0.964527 0.000791933 0)
(0.962998 0.000839531 0)
(0.961359 0.000882967 0)
(0.959649 0.000881907 0)
(0.957972 0.000816489 0)
(0.956457 0.000695023 0)
(0.955196 0.000544356 0)
(0.954229 0.000394187 0)
(0.953539 0.000265703 0)
(0.953077 0.00016808 0)
(0.952783 0.000100806 0)
(0.952602 5.81192e-05 0)
(0.952492 3.28648e-05 0)
(0.952423 1.87562e-05 0)
(0.952379 1.11935e-05 0)
(0.952347 7.21203e-06 0)
(0.952324 5.08253e-06 0)
(0.952305 3.87705e-06 0)
(0.952289 3.12807e-06 0)
(0.952276 2.61051e-06 0)
(0.952265 2.21907e-06 0)
(0.952255 1.90442e-06 0)
(0.952246 1.64246e-06 0)
(0.952238 1.42021e-06 0)
(0.952232 1.22975e-06 0)
(0.952226 1.06557e-06 0)
(0.952221 9.23554e-07 0)
(0.952216 8.00407e-07 0)
(0.952212 6.93465e-07 0)
(0.952209 6.00503e-07 0)
(0.952206 5.19616e-07 0)
(0.952203 4.49229e-07 0)
(0.952201 3.87931e-07 0)
(0.952199 3.34583e-07 0)
(0.952197 2.88171e-07 0)
(0.952195 2.47826e-07 0)
(0.952194 2.12772e-07 0)
(0.952193 1.8236e-07 0)
(0.952192 1.56015e-07 0)
(0.952191 1.33168e-07 0)
(0.95219 1.13491e-07 0)
(0.952189 9.64677e-08 0)
(0.952189 8.1824e-08 0)
(0.952188 6.92703e-08 0)
(0.952188 5.84412e-08 0)
(0.952187 4.92662e-08 0)
(0.952187 4.13345e-08 0)
(0.952187 3.47189e-08 0)
(0.952186 2.8882e-08 0)
(0.952186 2.44092e-08 0)
(0.952186 1.96466e-08 0)
(0.952186 1.7649e-08 0)
(0.952186 1.20635e-08 0)
(0.952186 1.47882e-08 0)
(0.952186 3.25249e-09 0)
(0.952185 1.87427e-08 0)
(0.952186 -1.22556e-08 0)
(0.952184 3.38726e-08 0)
(0.952188 -3.75853e-08 0)
(0.952181 5.92312e-08 0)
(0.952193 -6.20295e-08 0)
(0.952174 6.5692e-08 0)
(0.952202 -3.43293e-08 0)
(0.952162 -1.2273e-08 0)
(0.952216 9.90497e-08 0)
(0.952147 -1.53536e-07 0)
(0.952227 1.97043e-07 0)
(0.952138 -9.67734e-08 0)
(0.952223 5.24775e-08 0)
(0.952132 2.09762e-07 0)
(0.952197 -2.76746e-08 0)
(0.952093 7.06664e-07 0)
(0.999509 0.000637967 0)
(0.999526 0.000746305 0)
(0.999547 0.0008696 0)
(0.999524 0.00100422 0)
(0.999526 0.00110913 0)
(0.999675 0.00116154 0)
(0.99984 0.00117565 0)
(0.99989 0.00116121 0)
(0.999952 0.00111853 0)
(1.00006 0.00106814 0)
(1.00008 0.00104846 0)
(1.00003 0.00107531 0)
(1.00002 0.00111486 0)
(1.00003 0.00113429 0)
(1.00006 0.00113887 0)
(1.0001 0.00113008 0)
(1.00015 0.00110603 0)
(1.00019 0.00109182 0)
(1.00019 0.001107 0)
(1.00017 0.00112917 0)
(1.00017 0.00112613 0)
(1.0002 0.00110354 0)
(1.00023 0.00109342 0)
(1.00023 0.00110872 0)
(1.00023 0.00112757 0)
(1.00024 0.00112132 0)
(1.00027 0.00108906 0)
(1.00027 0.0010604 0)
(1.00025 0.00106572 0)
(1.00026 0.00110478 0)
(1.0003 0.00114271 0)
(1.00037 0.0011342 0)
(1.00046 0.00105297 0)
(1.00056 0.000904568 0)
(1.00063 0.000718378 0)
(1.00068 0.000529919 0)
(1.00069 0.000366179 0)
(1.00068 0.000239907 0)
(1.00066 0.00015152 0)
(1.00063 9.43339e-05 0)
(1.0006 5.95128e-05 0)
(1.00056 3.91271e-05 0)
(1.00053 2.73314e-05 0)
(1.0005 2.03509e-05 0)
(1.00048 1.59787e-05 0)
(1.00046 1.3019e-05 0)
(1.00044 1.08552e-05 0)
(1.00043 9.17502e-06 0)
(1.00042 7.81754e-06 0)
(1.0004 6.69416e-06 0)
(1.00039 5.75112e-06 0)
(1.00039 4.95229e-06 0)
(1.00038 4.27136e-06 0)
(1.00037 3.68812e-06 0)
(1.00037 3.18674e-06 0)
(1.00036 2.75442e-06 0)
(1.00036 2.38084e-06 0)
(1.00035 2.05743e-06 0)
(1.00035 1.77705e-06 0)
(1.00035 1.53382e-06 0)
(1.00034 1.32263e-06 0)
(1.00034 1.13927e-06 0)
(1.00034 9.80107e-07 0)
(1.00034 8.41973e-07 0)
(1.00034 7.22213e-07 0)
(1.00034 6.18424e-07 0)
(1.00033 5.28613e-07 0)
(1.00033 4.50939e-07 0)
(1.00033 3.83936e-07 0)
(1.00033 3.26198e-07 0)
(1.00033 2.76491e-07 0)
(1.00033 2.33896e-07 0)
(1.00033 1.97298e-07 0)
(1.00033 1.6613e-07 0)
(1.00033 1.39441e-07 0)
(1.00033 1.16883e-07 0)
(1.00033 9.74671e-08 0)
(1.00033 8.17118e-08 0)
(1.00033 6.69595e-08 0)
(1.00033 5.75236e-08 0)
(1.00033 4.39677e-08 0)
(1.00033 4.31363e-08 0)
(1.00033 2.34745e-08 0)
(1.00033 4.05734e-08 0)
(1.00033 -1.29544e-09 0)
(1.00033 5.38998e-08 0)
(1.00033 -3.46439e-08 0)
(1.00032 8.09429e-08 0)
(1.00034 -6.33873e-08 0)
(1.00031 8.29729e-08 0)
(1.00035 -2.16975e-08 0)
(1.0003 -2.0008e-08 0)
(1.00036 1.50082e-07 0)
(1.00029 -1.88346e-07 0)
(1.00037 2.71421e-07 0)
(1.00028 -7.31307e-08 0)
(1.00036 8.78459e-08 0)
(1.00028 3.80648e-07 0)
(1.00034 3.52864e-08 0)
(1.00024 1.12235e-06 0)
(0.999573 0.000520701 0)
(0.999589 0.000574753 0)
(0.999617 0.000627134 0)
(0.999593 0.000702446 0)
(0.999565 0.000784908 0)
(0.999686 0.000817004 0)
(0.999842 0.000825548 0)
(0.999884 0.000839625 0)
(0.999948 0.000826999 0)
(1.00008 0.000792904 0)
(1.00013 0.000778293 0)
(1.00011 0.00079137 0)
(1.00012 0.000816894 0)
(1.00014 0.000840729 0)
(1.00017 0.000854461 0)
(1.00023 0.000854559 0)
(1.0003 0.00084123 0)
(1.00037 0.000827793 0)
(1.00041 0.000833859 0)
(1.00041 0.000852906 0)
(1.00042 0.000858494 0)
(1.00049 0.000847555 0)
(1.00056 0.000842213 0)
(1.00059 0.000851052 0)
(1.00063 0.000857984 0)
(1.00068 0.00084932 0)
(1.00075 0.000832165 0)
(1.00079 0.000823937 0)
(1.00083 0.000832618 0)
(1.00088 0.00084802 0)
(1.00098 0.000847915 0)
(1.0011 0.000812121 0)
(1.00122 0.00073424 0)
(1.00133 0.000623845 0)
(1.00139 0.000499751 0)
(1.00141 0.000380698 0)
(1.00138 0.000279179 0)
(1.00134 0.000200051 0)
(1.00128 0.000142382 0)
(1.00122 0.000102245 0)
(1.00117 7.50028e-05 0)
(1.00112 5.65917e-05 0)
(1.00108 4.39677e-05 0)
(1.00105 3.50644e-05 0)
(1.00102 2.85616e-05 0)
(1.001 2.3642e-05 0)
(1.00098 1.98032e-05 0)
(1.00097 1.67322e-05 0)
(1.00096 1.42279e-05 0)
(1.00094 1.21559e-05 0)
(1.00093 1.04223e-05 0)
(1.00093 8.95952e-06 0)
(1.00092 7.71682e-06 0)
(1.00091 6.65543e-06 0)
(1.00091 5.74508e-06 0)
(1.0009 4.96162e-06 0)
(1.0009 4.28562e-06 0)
(1.00089 3.7011e-06 0)
(1.00089 3.19496e-06 0)
(1.00088 2.75624e-06 0)
(1.00088 2.3757e-06 0)
(1.00088 2.04554e-06 0)
(1.00088 1.75911e-06 0)
(1.00088 1.51068e-06 0)
(1.00087 1.29542e-06 0)
(1.00087 1.10891e-06 0)
(1.00087 9.47602e-07 0)
(1.00087 8.08219e-07 0)
(1.00087 6.87883e-07 0)
(1.00087 5.8437e-07 0)
(1.00087 4.95193e-07 0)
(1.00087 4.18787e-07 0)
(1.00087 3.53274e-07 0)
(1.00087 2.97303e-07 0)
(1.00087 2.49617e-07 0)
(1.00087 2.09028e-07 0)
(1.00087 1.74539e-07 0)
(1.00087 1.45707e-07 0)
(1.00087 1.20584e-07 0)
(1.00087 1.01127e-07 0)
(1.00087 8.18106e-08 0)
(1.00087 7.12275e-08 0)
(1.00087 5.28041e-08 0)
(1.00086 5.41642e-08 0)
(1.00087 2.8667e-08 0)
(1.00086 5.009e-08 0)
(1.00087 4.93924e-09 0)
(1.00086 5.51042e-08 0)
(1.00087 -1.00637e-08 0)
(1.00085 4.59842e-08 0)
(1.00088 2.14263e-08 0)
(1.00084 -1.55264e-08 0)
(1.0009 1.20155e-07 0)
(1.00082 -8.78193e-08 0)
(1.00091 1.76206e-07 0)
(1.00082 5.40011e-08 0)
(1.0009 5.4954e-08 0)
(1.00081 4.20974e-07 0)
(1.00088 1.29642e-07 0)
(1.00078 9.02998e-07 0)
(0.999623 0.000522981 0)
(0.999652 0.000573254 0)
(0.999695 0.00062236 0)
(0.999705 0.000680098 0)
(0.999663 0.000777604 0)
(0.999734 0.000838422 0)
(0.999886 0.000852741 0)
(0.999924 0.000892292 0)
(0.999946 0.000920554 0)
(1.00006 0.00090156 0)
(1.00013 0.000886655 0)
(1.00014 0.000894252 0)
(1.00015 0.000909843 0)
(1.00017 0.000933579 0)
(1.00019 0.000955187 0)
(1.00023 0.00096703 0)
(1.00029 0.000968912 0)
(1.00036 0.000955656 0)
(1.00042 0.000944744 0)
(1.00043 0.000958615 0)
(1.00043 0.000978645 0)
(1.00048 0.000976353 0)
(1.00056 0.000963013 0)
(1.00061 0.000962639 0)
(1.00064 0.000970604 0)
(1.00068 0.000968715 0)
(1.00074 0.000954946 0)
(1.00079 0.000941642 0)
(1.00084 0.000937701 0)
(1.00091 0.000939683 0)
(1.00099 0.00093389 0)
(1.00109 0.0009039 0)
(1.00118 0.000839486 0)
(1.00125 0.000742033 0)
(1.00129 0.000623294 0)
(1.0013 0.000499393 0)
(1.00129 0.000384558 0)
(1.00126 0.000287612 0)
(1.00122 0.000211566 0)
(1.00118 0.000155153 0)
(1.00114 0.00011488 0)
(1.00111 8.67097e-05 0)
(1.00107 6.70519e-05 0)
(1.00105 5.31421e-05 0)
(1.00102 4.30426e-05 0)
(1.001 3.54758e-05 0)
(1.00099 2.96277e-05 0)
(1.00097 2.49845e-05 0)
(1.00096 2.12178e-05 0)
(1.00095 1.81116e-05 0)
(1.00094 1.55185e-05 0)
(1.00093 1.33335e-05 0)
(1.00092 1.14791e-05 0)
(1.00091 9.89666e-06 0)
(1.00091 8.54025e-06 0)
(1.0009 7.37353e-06 0)
(1.0009 6.36729e-06 0)
(1.00089 5.49758e-06 0)
(1.00089 4.74484e-06 0)
(1.00089 4.09253e-06 0)
(1.00089 3.52693e-06 0)
(1.00088 3.03633e-06 0)
(1.00088 2.61075e-06 0)
(1.00088 2.24179e-06 0)
(1.00088 1.9221e-06 0)
(1.00088 1.64517e-06 0)
(1.00088 1.40572e-06 0)
(1.00087 1.19883e-06 0)
(1.00087 1.02021e-06 0)
(1.00087 8.66632e-07 0)
(1.00087 7.3431e-07 0)
(1.00087 6.2093e-07 0)
(1.00087 5.23801e-07 0)
(1.00087 4.40719e-07 0)
(1.00087 3.70012e-07 0)
(1.00087 3.09803e-07 0)
(1.00087 2.58705e-07 0)
(1.00087 2.15813e-07 0)
(1.00087 1.78911e-07 0)
(1.00087 1.49395e-07 0)
(1.00087 1.21978e-07 0)
(1.00087 1.04145e-07 0)
(1.00087 8.04392e-08 0)
(1.00087 7.66654e-08 0)
(1.00087 4.74624e-08 0)
(1.00087 6.51138e-08 0)
(1.00087 1.89503e-08 0)
(1.00086 6.28269e-08 0)
(1.00088 5.60876e-09 0)
(1.00086 4.67537e-08 0)
(1.00089 4.08538e-08 0)
(1.00084 -1.54152e-08 0)
(1.0009 1.36157e-07 0)
(1.00083 -6.17303e-08 0)
(1.00091 1.66124e-07 0)
(1.00082 1.22581e-07 0)
(1.00091 3.98849e-08 0)
(1.00082 5.08333e-07 0)
(1.00088 1.7882e-07 0)
(1.00078 9.00694e-07 0)
(0.999686 0.000516485 0)
(0.999713 0.000558028 0)
(0.999747 0.000602151 0)
(0.99978 0.000637233 0)
(0.999754 0.000706295 0)
(0.999775 0.000772842 0)
(0.999903 0.000779586 0)
(0.999962 0.00079543 0)
(0.99996 0.000832894 0)
(1.00004 0.000829518 0)
(1.00012 0.000810692 0)
(1.00014 0.000810148 0)
(1.00016 0.000813321 0)
(1.00018 0.000823349 0)
(1.0002 0.000839673 0)
(1.00024 0.000851495 0)
(1.00029 0.000859479 0)
(1.00034 0.000853473 0)
(1.00041 0.000833168 0)
(1.00044 0.000829267 0)
(1.00044 0.000847633 0)
(1.00047 0.00085492 0)
(1.00054 0.000841843 0)
(1.0006 0.000831601 0)
(1.00063 0.000831759 0)
(1.00067 0.000828509 0)
(1.00073 0.000816524 0)
(1.00078 0.000803654 0)
(1.00083 0.000794335 0)
(1.00088 0.000783359 0)
(1.00095 0.000761665 0)
(1.00103 0.00072213 0)
(1.00111 0.00066236 0)
(1.00118 0.000585606 0)
(1.00122 0.000499471 0)
(1.00124 0.000412851 0)
(1.00124 0.000333036 0)
(1.00122 0.000264328 0)
(1.00119 0.00020813 0)
(1.00116 0.000163792 0)
(1.00113 0.000129587 0)
(1.00109 0.00010348 0)
(1.00107 8.35673e-05 0)
(1.00104 6.82781e-05 0)
(1.00102 5.64011e-05 0)
(1.001 4.70427e-05 0)
(1.00098 3.95583e-05 0)
(1.00097 3.34876e-05 0)
(1.00096 2.85006e-05 0)
(1.00094 2.4359e-05 0)
(1.00093 2.08876e-05 0)
(1.00093 1.79559e-05 0)
(1.00092 1.54644e-05 0)
(1.00091 1.33363e-05 0)
(1.00091 1.15109e-05 0)
(1.0009 9.94e-06 0)
(1.0009 8.58467e-06 0)
(1.00089 7.41293e-06 0)
(1.00089 6.3985e-06 0)
(1.00089 5.51925e-06 0)
(1.00089 4.75671e-06 0)
(1.00088 4.09521e-06 0)
(1.00088 3.52133e-06 0)
(1.00088 3.02375e-06 0)
(1.00088 2.59258e-06 0)
(1.00088 2.2191e-06 0)
(1.00088 1.89609e-06 0)
(1.00087 1.61704e-06 0)
(1.00087 1.3761e-06 0)
(1.00087 1.1689e-06 0)
(1.00087 9.90465e-07 0)
(1.00087 8.37463e-07 0)
(1.00087 7.06482e-07 0)
(1.00087 5.94385e-07 0)
(1.00087 4.99008e-07 0)
(1.00087 4.17805e-07 0)
(1.00087 3.48925e-07 0)
(1.00087 2.90915e-07 0)
(1.00087 2.41491e-07 0)
(1.00087 2.00965e-07 0)
(1.00087 1.65321e-07 0)
(1.00087 1.38771e-07 0)
(1.00087 1.11391e-07 0)
(1.00087 9.80513e-08 0)
(1.00087 7.26648e-08 0)
(1.00087 7.3996e-08 0)
(1.00087 4.5826e-08 0)
(1.00086 6.03861e-08 0)
(1.00088 3.60086e-08 0)
(1.00086 4.27572e-08 0)
(1.00089 5.95859e-08 0)
(1.00084 6.47381e-09 0)
(1.0009 1.19133e-07 0)
(1.00083 3.81788e-09 0)
(1.00091 1.35343e-07 0)
(1.00082 1.82307e-07 0)
(1.00091 7.97476e-08 0)
(1.00082 5.14506e-07 0)
(1.00088 2.59373e-07 0)
(1.00078 8.53496e-07 0)
(0.999745 0.000496137 0)
(0.999768 0.000530474 0)
(0.999801 0.00056851 0)
(0.999842 0.000599516 0)
(0.999839 0.000641012 0)
(0.999829 0.000701696 0)
(0.999914 0.000723636 0)
(0.99999 0.000727269 0)
(0.999989 0.000759893 0)
(1.00003 0.000776425 0)
(1.00011 0.000766187 0)
(1.00014 0.000768158 0)
(1.00017 0.000776969 0)
(1.0002 0.00078477 0)
(1.00022 0.000799532 0)
(1.00026 0.000813572 0)
(1.00029 0.0008242 0)
(1.00034 0.000829938 0)
(1.0004 0.000820828 0)
(1.00045 0.000812062 0)
(1.00046 0.000823592 0)
(1.00048 0.000838067 0)
(1.00054 0.000834018 0)
(1.0006 0.000823014 0)
(1.00064 0.000820655 0)
(1.00067 0.000820596 0)
(1.00072 0.000813196 0)
(1.00077 0.000801151 0)
(1.00082 0.000789774 0)
(1.00088 0.000777405 0)
(1.00094 0.00075788 0)
(1.00101 0.000725443 0)
(1.00107 0.000676908 0)
(1.00112 0.000612721 0)
(1.00115 0.00053717 0)
(1.00117 0.000456955 0)
(1.00117 0.000378895 0)
(1.00116 0.000308163 0)
(1.00114 0.000247613 0)
(1.00112 0.000197977 0)
(1.0011 0.000158508 0)
(1.00107 0.000127686 0)
(1.00105 0.000103788 0)
(1.00103 8.52227e-05 0)
(1.00101 7.06765e-05 0)
(1.00099 5.91389e-05 0)
(1.00098 4.98615e-05 0)
(1.00096 4.23013e-05 0)
(1.00095 3.60659e-05 0)
(1.00094 3.08695e-05 0)
(1.00093 2.65016e-05 0)
(1.00092 2.28037e-05 0)
(1.00092 1.96549e-05 0)
(1.00091 1.69608e-05 0)
(1.00091 1.4647e-05 0)
(1.0009 1.26537e-05 0)
(1.0009 1.09323e-05 0)
(1.00089 9.44307e-06 0)
(1.00089 8.15287e-06 0)
(1.00089 7.0341e-06 0)
(1.00088 6.06331e-06 0)
(1.00088 5.22092e-06 0)
(1.00088 4.48994e-06 0)
(1.00088 3.85587e-06 0)
(1.00088 3.30637e-06 0)
(1.00088 2.83028e-06 0)
(1.00088 2.41838e-06 0)
(1.00087 2.06262e-06 0)
(1.00087 1.75539e-06 0)
(1.00087 1.49106e-06 0)
(1.00087 1.26356e-06 0)
(1.00087 1.06832e-06 0)
(1.00087 9.01252e-07 0)
(1.00087 7.58281e-07 0)
(1.00087 6.36575e-07 0)
(1.00087 5.33003e-07 0)
(1.00087 4.45142e-07 0)
(1.00087 3.71036e-07 0)
(1.00087 3.08173e-07 0)
(1.00087 2.56101e-07 0)
(1.00087 2.113e-07 0)
(1.00087 1.7623e-07 0)
(1.00087 1.43358e-07 0)
(1.00087 1.22853e-07 0)
(1.00087 9.59285e-08 0)
(1.00087 8.95958e-08 0)
(1.00087 6.44992e-08 0)
(1.00086 6.92068e-08 0)
(1.00088 5.24844e-08 0)
(1.00086 4.83451e-08 0)
(1.00089 7.25272e-08 0)
(1.00084 2.13836e-08 0)
(1.0009 1.17563e-07 0)
(1.00083 4.34753e-08 0)
(1.00091 1.22117e-07 0)
(1.00082 2.29364e-07 0)
(1.00091 1.02125e-07 0)
(1.00082 5.16187e-07 0)
(1.00088 3.20886e-07 0)
(1.00078 8.08145e-07 0)
(0.999811 0.00047361 0)
(0.99982 0.000507964 0)
(0.999847 0.000540956 0)
(0.999883 0.000568648 0)
(0.999897 0.00059169 0)
(0.99989 0.000637661 0)
(0.999938 0.000673265 0)
(1.00001 0.00067778 0)
(1.00003 0.000697896 0)
(1.00005 0.000724786 0)
(1.00011 0.00072773 0)
(1.00015 0.000730466 0)
(1.00018 0.00074105 0)
(1.00021 0.000747964 0)
(1.00024 0.000758591 0)
(1.00027 0.000770724 0)
(1.0003 0.000778215 0)
(1.00034 0.000785934 0)
(1.00039 0.000786724 0)
(1.00044 0.000777752 0)
(1.00047 0.000777296 0)
(1.00049 0.000787996 0)
(1.00053 0.000790067 0)
(1.00059 0.000779944 0)
(1.00063 0.000771339 0)
(1.00067 0.000766972 0)
(1.00071 0.000758989 0)
(1.00076 0.000745222 0)
(1.00081 0.000728583 0)
(1.00085 0.000708646 0)
(1.0009 0.000681643 0)
(1.00096 0.000644741 0)
(1.00101 0.000597529 0)
(1.00105 0.000541554 0)
(1.00109 0.000479892 0)
(1.00111 0.000416504 0)
(1.00112 0.000355219 0)
(1.00111 0.000298925 0)
(1.0011 0.00024929 0)
(1.00109 0.000206878 0)
(1.00107 0.000171455 0)
(1.00105 0.00014231 0)
(1.00103 0.000118527 0)
(1.00101 9.9174e-05 0)
(1.001 8.34027e-05 0)
(1.00098 7.04938e-05 0)
(1.00097 5.98627e-05 0)
(1.00096 5.10463e-05 0)
(1.00095 4.36828e-05 0)
(1.00094 3.74912e-05 0)
(1.00093 3.22531e-05 0)
(1.00092 2.77975e-05 0)
(1.00092 2.39899e-05 0)
(1.00091 2.07233e-05 0)
(1.0009 1.79116e-05 0)
(1.0009 1.54851e-05 0)
(1.0009 1.33866e-05 0)
(1.00089 1.15689e-05 0)
(1.00089 9.99253e-06 0)
(1.00089 8.62448e-06 0)
(1.00088 7.43653e-06 0)
(1.00088 6.4051e-06 0)
(1.00088 5.50962e-06 0)
(1.00088 4.73244e-06 0)
(1.00088 4.05867e-06 0)
(1.00088 3.47477e-06 0)
(1.00087 2.96941e-06 0)
(1.00087 2.53287e-06 0)
(1.00087 2.15582e-06 0)
(1.00087 1.83124e-06 0)
(1.00087 1.552e-06 0)
(1.00087 1.31222e-06 0)
(1.00087 1.10703e-06 0)
(1.00087 9.31495e-07 0)
(1.00087 7.81958e-07 0)
(1.00087 6.54754e-07 0)
(1.00087 5.46845e-07 0)
(1.00087 4.5573e-07 0)
(1.00087 3.78662e-07 0)
(1.00087 3.14411e-07 0)
(1.00087 2.59888e-07 0)
(1.00087 2.15842e-07 0)
(1.00087 1.77137e-07 0)
(1.00087 1.49041e-07 0)
(1.00087 1.20658e-07 0)
(1.00087 1.05729e-07 0)
(1.00087 8.47651e-08 0)
(1.00086 7.82601e-08 0)
(1.00088 6.98336e-08 0)
(1.00086 5.76777e-08 0)
(1.00089 8.17071e-08 0)
(1.00084 4.41418e-08 0)
(1.0009 1.12878e-07 0)
(1.00083 8.33039e-08 0)
(1.00091 1.22833e-07 0)
(1.00082 2.5525e-07 0)
(1.00091 1.41648e-07 0)
(1.00082 5.09775e-07 0)
(1.00088 3.66987e-07 0)
(1.00078 7.68105e-07 0)
(0.99987 0.000448248 0)
(0.999876 0.000481555 0)
(0.999897 0.000509389 0)
(0.99992 0.000533951 0)
(0.999944 0.000554636 0)
(0.999952 0.000587652 0)
(0.999975 0.000621816 0)
(1.00002 0.000633088 0)
(1.00006 0.0006459 0)
(1.00007 0.000670978 0)
(1.00012 0.000683169 0)
(1.00016 0.000687575 0)
(1.00019 0.000697534 0)
(1.00022 0.00070558 0)
(1.00025 0.000713245 0)
(1.00028 0.000722376 0)
(1.00031 0.000728108 0)
(1.00035 0.000734593 0)
(1.00039 0.000739722 0)
(1.00043 0.000734832 0)
(1.00047 0.000729015 0)
(1.00049 0.000732897 0)
(1.00053 0.00073628 0)
(1.00058 0.000729114 0)
(1.00062 0.000718163 0)
(1.00066 0.000710061 0)
(1.00069 0.000701108 0)
(1.00074 0.000687529 0)
(1.00078 0.000670685 0)
(1.00083 0.000651637 0)
(1.00088 0.000628462 0)
(1.00092 0.000598755 0)
(1.00097 0.000561521 0)
(1.001 0.000517156 0)
(1.00103 0.00046722 0)
(1.00105 0.000414233 0)
(1.00106 0.000361115 0)
(1.00107 0.000310484 0)
(1.00106 0.000264218 0)
(1.00105 0.000223349 0)
(1.00104 0.000188165 0)
(1.00103 0.00015842 0)
(1.00101 0.000133559 0)
(1.001 0.000112899 0)
(1.00099 9.57536e-05 0)
(1.00097 8.14989e-05 0)
(1.00096 6.96028e-05 0)
(1.00095 5.96271e-05 0)
(1.00094 5.12181e-05 0)
(1.00093 4.40934e-05 0)
(1.00093 3.80279e-05 0)
(1.00092 3.2842e-05 0)
(1.00091 2.83917e-05 0)
(1.00091 2.45604e-05 0)
(1.0009 2.12533e-05 0)
(1.0009 1.83924e-05 0)
(1.00089 1.59133e-05 0)
(1.00089 1.37624e-05 0)
(1.00089 1.18944e-05 0)
(1.00089 1.02714e-05 0)
(1.00088 8.8606e-06 0)
(1.00088 7.63456e-06 0)
(1.00088 6.5694e-06 0)
(1.00088 5.64433e-06 0)
(1.00088 4.84187e-06 0)
(1.00088 4.14623e-06 0)
(1.00087 3.54383e-06 0)
(1.00087 3.02329e-06 0)
(1.00087 2.57365e-06 0)
(1.00087 2.18631e-06 0)
(1.00087 1.85314e-06 0)
(1.00087 1.56696e-06 0)
(1.00087 1.32198e-06 0)
(1.00087 1.11247e-06 0)
(1.00087 9.33885e-07 0)
(1.00087 7.81994e-07 0)
(1.00087 6.53144e-07 0)
(1.00087 5.44278e-07 0)
(1.00087 4.52329e-07 0)
(1.00087 3.75408e-07 0)
(1.00087 3.10593e-07 0)
(1.00087 2.57413e-07 0)
(1.00087 2.12141e-07 0)
(1.00087 1.76971e-07 0)
(1.00087 1.45541e-07 0)
(1.00087 1.24092e-07 0)
(1.00087 1.03708e-07 0)
(1.00086 9.05639e-08 0)
(1.00088 8.48841e-08 0)
(1.00086 6.94088e-08 0)
(1.00089 9.07747e-08 0)
(1.00084 6.45471e-08 0)
(1.0009 1.13193e-07 0)
(1.00083 1.14194e-07 0)
(1.00091 1.28829e-07 0)
(1.00082 2.7262e-07 0)
(1.00091 1.80164e-07 0)
(1.00082 4.95191e-07 0)
(1.00088 3.99485e-07 0)
(1.00078 7.31587e-07 0)
(0.999926 0.000428486 0)
(0.999926 0.000454988 0)
(0.999937 0.000478308 0)
(0.999959 0.00050155 0)
(0.999986 0.000522586 0)
(1 0.000543865 0)
(1.00001 0.000569747 0)
(1.00005 0.000588386 0)
(1.00008 0.000600793 0)
(1.0001 0.000618967 0)
(1.00013 0.000634167 0)
(1.00017 0.00064165 0)
(1.0002 0.000650238 0)
(1.00023 0.000658833 0)
(1.00026 0.000664921 0)