/*--------------------------------*- C++ -*----------------------------------*\
| =========                 |                                                 |
| \\      /  F ield         | OpenFOAM: The Open Source CFD Toolbox           |
|  \\    /   O peration     | Version:  v2012                                 |
|   \\  /    A nd           | Website:  www.openfoam.com                      |
|    \\/     M anipulation  |                                                 |
\*---------------------------------------------------------------------------*/
FoamFile
{
    version     2.0;
    format      ascii;
    class       volScalarField;
    location    "0.2";
    object      p;
}
// * * * * * * * * * * * * * * * * * * * * * * * * * * * * * * * * * * * * * //

dimensions      [0 2 -2 0 0 0 0];


internalField   nonuniform List<scalar> 
2400
(
-3.0621e-11
7.56758e-06
1.09596e-06
-1.03193e-05
6.09249e-05
0.000149822
0.000117216
3.27985e-05
6.2328e-05
0.00018709
0.000266436
0.000255462
0.000241053
0.00029559
0.000367764
0.000384004
0.000334096
0.000267135
0.000237464
0.000279577
3.8963e-06
7.27525e-06
-2.88582e-06
-8.51127e-06
5.86626e-05
0.000148476
0.000116589
3.34916e-05
6.2776e-05
0.000187077
0.000266342
0.000254753
0.000237728
0.000271892
0.000322819
0.000313175
0.000240073
0.00016699
0.000145316
0.000194353
5.184e-06
7.79552e-06
-6.20114e-06
-1.16639e-05
5.86953e-05
0.000148077
0.000118279
3.58185e-05
6.1145e-05
0.000181224
0.000257023
0.000238349
0.000199256
0.000222659
0.000264527
0.000257805
0.000197714
0.000145065
0.00014125
0.000190123
1.00787e-06
1.55833e-05
-5.79256e-06
-2.34107e-05
5.71077e-05
0.000147465
0.000118484
3.91163e-05
5.79221e-05
0.000170219
0.000240594
0.000217851
0.000173126
0.000183994
0.000221713
0.00022091
0.000170825
0.000123075
0.00012019
0.000164384
-2.86131e-06
1.95499e-05
-9.85596e-08
-3.39801e-05
4.76491e-05
0.000149433
0.000121903
3.60986e-05
4.8718e-05
0.000152578
0.000217047
0.000187972
0.000141825
0.000148076
0.000186577
0.00019109
0.00014462
9.51909e-05
8.92487e-05
0.000131915
-8.39695e-06
2.06189e-05
1.27173e-05
-4.49552e-05
2.38862e-05
0.000146111
0.000130643
3.25944e-05
3.23812e-05
0.000134157
0.000197928
0.00016408
0.000108672
0.000109612
0.000152122
0.000164807
0.000121426
6.92678e-05
5.90406e-05
9.92224e-05
-1.20631e-05
1.57927e-05
2.44587e-05
-3.41696e-05
-9.9585e-07
0.000129005
0.000140861
3.28798e-05
5.65681e-06
0.000101328
0.000176584
0.000146252
7.85774e-05
6.7596e-05
0.000111741
0.000139546
0.000107952
5.37565e-05
3.37003e-05
6.191e-05
-1.35808e-05
8.71942e-06
3.03353e-05
-2.23353e-05
-2.58623e-05
9.40916e-05
0.000143634
5.03017e-05
-1.18731e-05
5.8773e-05
0.000146712
0.000135753
6.22572e-05
3.00221e-05
6.57416e-05
0.000108113
9.77207e-05
4.63649e-05
1.16534e-05
2.1616e-05
-1.37948e-05
-2.61383e-09
2.70194e-05
-5.79798e-06
-3.09597e-05
5.37453e-05
0.000127149
6.63202e-05
-1.63912e-05
1.37326e-05
0.000101382
0.000118169
5.63209e-05
6.08041e-06
2.04508e-05
6.47917e-05
7.6086e-05
3.9708e-05
-2.02737e-06
-1.05083e-05
-1.42938e-05
-7.3259e-06
1.79028e-05
3.86563e-06
-3.07162e-05
1.65669e-05
9.27244e-05
7.17304e-05
-6.14062e-06
-1.5342e-05
4.93668e-05
8.66381e-05
5.03106e-05
-4.71996e-06
-1.43101e-05
1.70352e-05
4.05275e-05
2.52971e-05
-1.10924e-05
-3.25461e-05
-1.55671e-05
-1.32658e-05
4.57532e-06
4.8153e-06
-2.40309e-05
-7.17506e-06
5.25011e-05
5.97989e-05
2.32801e-06
-2.99642e-05
3.51119e-06
4.35755e-05
3.28633e-05
-1.08922e-05
-3.58552e-05
-2.39072e-05
-1.8018e-06
-1.5306e-06
-2.53267e-05
-4.98378e-05
-1.84338e-05
-1.84426e-05
-7.50234e-06
-1.49435e-06
-2.08208e-05
-2.19005e-05
1.52135e-05
3.37523e-05
1.22882e-06
-3.4568e-05
-2.8267e-05
-1.57898e-08
4.49514e-06
-2.23778e-05
-5.00676e-05
-5.45352e-05
-4.27669e-05
-3.70537e-05
-4.83112e-05
-6.75535e-05
-2.29805e-05
-2.37054e-05
-1.86078e-05
-1.29668e-05
-2.33809e-05
-3.08624e-05
-1.36096e-05
3.30166e-06
-1.09852e-05
-4.03246e-05
-4.95377e-05
-3.67199e-05
-2.93328e-05
-4.26953e-05
-6.49351e-05
-7.7477e-05
-7.64072e-05
-7.27263e-05
-7.72794e-05
-9.00373e-05
-2.90241e-05
-3.00441e-05
-2.8795e-05
-2.55063e-05
-3.09722e-05
-3.97043e-05
-3.55952e-05
-2.57835e-05
-3.12419e-05
-5.12584e-05
-6.53607e-05
-6.49498e-05
-6.16041e-05
-6.83911e-05
-8.40099e-05
-9.80089e-05
-0.000104198
-0.000105467
-0.000108562
-0.000116431
-3.61998e-05
-3.73959e-05
-3.84871e-05
-3.83007e-05
-4.23442e-05
-5.02473e-05
-5.29281e-05
-5.05068e-05
-5.39711e-05
-6.71432e-05
-8.10852e-05
-8.78731e-05
-9.01964e-05
-9.56439e-05
-0.000106492
-0.000118622
-0.000127568
-0.000132841
-0.000137294
-0.00014365
-4.41094e-05
-4.56398e-05
-4.82253e-05
-5.06511e-05
-5.50793e-05
-6.2356e-05
-6.8323e-05
-7.13403e-05
-7.60226e-05
-8.59468e-05
-9.82424e-05
-0.000107931
-0.000114383
-0.000120805
-0.000129617
-0.000140016
-0.00014969
-0.000157433
-0.000163866
-0.000170311
-5.24033e-05
-5.43517e-05
-5.79587e-05
-6.22988e-05
-6.78424e-05
-7.52344e-05
-8.2894e-05
-8.92889e-05
-9.59017e-05
-0.000104939
-0.000115932
-0.00012644
-0.000135283
-0.000143407
-0.000152178
-0.000161734
-0.000171137
-0.000179556
-0.000186954
-0.000193874
-6.05607e-05
-6.29392e-05
-6.73362e-05
-7.30178e-05
-7.97592e-05
-8.77363e-05
-9.63646e-05
-0.000104771
-0.000113166
-0.000122503
-0.000132942
-0.000143582
-0.000153558
-0.000162858
-0.000172009
-0.000181313
-0.000190569
-0.000199387
-0.00020756
-0.000215168
-6.81091e-05
-7.07758e-05
-7.56835e-05
-8.21778e-05
-8.98164e-05
-9.84248e-05
-0.000107706
-0.000117223
-0.000126845
-0.000136804
-0.000147213
-0.000157807
-0.00016819
-0.000178186
-0.000187865
-0.000197327
-0.000206541
-0.000215374
-0.000223716
-0.000231543
-7.50497e-05
-7.83244e-05
-8.4032e-05
-9.15246e-05
-0.000100273
-0.000109907
-0.000120118
-0.000130615
-0.000141235
-0.000151979
-0.000162872
-0.000173829
-0.000184683
-0.000195283
-0.000205548
-0.000215434
-0.000224904
-0.000233917
-0.000242455
-0.000250539
0.000389089
0.000515533
0.000576211
0.00055593
0.000498068
0.00043573
0.000344752
0.000201836
4.90671e-05
-4.98928e-05
-8.00924e-05
-8.55262e-05
-0.000113403
-0.000153456
-0.000167352
-0.000157059
-0.000160877
-0.000204418
-0.00026568
-0.000302614
-0.000322706
-0.000362116
-0.000407904
-0.000426818
-0.000433187
-0.000455503
-0.000487579
-0.000517526
-0.000551483
-0.000589029
-0.000618743
-0.000639588
-0.000660101
-0.000686643
-0.000721723
-0.00076017
-0.00079099
-0.000813634
-0.000839888
-0.000874705
-0.000910728
-0.000942772
-0.000973546
-0.00100585
-0.00103956
-0.00107515
-0.00111333
-0.00115206
-0.00118823
-0.00122224
-0.00125885
-0.00130326
-0.00135668
-0.00141524
-0.00147226
-0.0015218
-0.00156117
-0.00159125
-0.0016151
-0.00163619
-0.00165723
-0.00167982
-0.00170459
-0.0017316
-0.00176059
-0.00179133
-0.00182347
-0.00185688
-0.00189131
-0.00192679
-0.00196305
-0.00200032
-0.00203819
-0.0020771
-0.00211647
-0.00215694
-0.00219779
-0.00223975
-0.00228214
-0.00232547
-0.00236953
-0.00241413
-0.00245999
-0.00250581
-0.00255345
-0.00260072
-0.00264984
-0.00269903
-0.00274922
-0.00280062
-0.00285191
-0.00290504
-0.00295799
-0.00301171
-0.00306607
-0.00311931
-0.00317201
-0.00322234
-0.00326738
-0.00330627
0.000289107
0.000372969
0.000410873
0.000411704
0.000393389
0.000365267
0.000308011
0.00019847
6.27487e-05
-4.0062e-05
-8.04662e-05
-9.27496e-05
-0.000126668
-0.000170598
-0.000183251
-0.000168428
-0.000166771
-0.000205976
-0.00026644
-0.000305383
-0.000326864
-0.000366863
-0.00041371
-0.000432171
-0.000436299
-0.000457648
-0.000490151
-0.000520125
-0.000554268
-0.00059219
-0.000621346
-0.000641648
-0.000662566
-0.000689104
-0.000723428
-0.000761818
-0.000793243
-0.000815835
-0.000841476
-0.000876112
-0.000912396
-0.000944522
-0.000975094
-0.0010072
-0.00104084
-0.00107639
-0.00111454
-0.00115324
-0.0011894
-0.0012234
-0.00125981
-0.00130364
-0.00135616
-0.00141369
-0.00146987
-0.00151901
-0.00155851
-0.00158912
-0.00161366
-0.00163538
-0.00165687
-0.0016797
-0.00170456
-0.00173157
-0.00176054
-0.00179126
-0.0018234
-0.00185682
-0.00189125
-0.00192675
-0.00196301
-0.00200029
-0.00203816
-0.00207708
-0.00211645
-0.00215693
-0.00219777
-0.00223975
-0.00228213
-0.00232547
-0.00236953
-0.00241412
-0.00245999
-0.00250579
-0.00255346
-0.00260071
-0.00264984
-0.00269903
-0.00274922
-0.00280063
-0.0028519
-0.00290505
-0.00295799
-0.00301171
-0.00306611
-0.00311931
-0.00317207
-0.00322233
-0.00326754
-0.00330662
0.000266303
0.000327321
0.000351683
0.000354619
0.000350166
0.000337082
0.000296869
0.00021129
9.51229e-05
-5.99409e-06
-5.55102e-05
-7.6876e-05
-0.000120592
-0.000174337
-0.00019121
-0.000173861
-0.000166105
-0.000199221
-0.000256559
-0.000296342
-0.000320824
-0.000364115
-0.000413918
-0.00043303
-0.000434787
-0.000453905
-0.000486225
-0.000516899
-0.000552174
-0.000591313
-0.000620514
-0.000640251
-0.000661147
-0.000687599
-0.000721733
-0.00076072
-0.000792743
-0.000814912
-0.000840207
-0.000875516
-0.00091224
-0.000943605
-0.000973514
-0.00100644
-0.00104148
-0.00107704
-0.00111334
-0.00115027
-0.00118685
-0.00122339
-0.00126235
-0.00130619
-0.00135505
-0.00140642
-0.0014564
-0.0015015
-0.00154
-0.00157221
-0.00159985
-0.00162507
-0.00164971
-0.00167503
-0.00170169
-0.00172991
-0.00175962
-0.00179074
-0.00182309
-0.00185662
-0.00189111
-0.00192664
-0.00196294
-0.00200023
-0.00203811
-0.00207704
-0.00211642
-0.00215691
-0.00219775
-0.00223973
-0.00228211
-0.00232546
-0.00236952
-0.00241411
-0.00245999
-0.00250579
-0.00255346
-0.0026007
-0.00264985
-0.00269902
-0.00274922
-0.00280063
-0.0028519
-0.00290506
-0.002958
-0.00301171
-0.00306613
-0.00311931
-0.0031721
-0.00322236
-0.00326766
-0.00330682
0.000226553
0.000268046
0.000275118
0.000268032
0.000264998
0.000263331
0.000237432
0.000167401
7.04122e-05
-1.45825e-05
-5.82807e-05
-7.87772e-05
-0.00012395
-0.000185782
-0.000212535
-0.000198121
-0.000186885
-0.000214616
-0.000266172
-0.000300755
-0.000322973
-0.00036814
-0.000422069
-0.000444133
-0.00044556
-0.000462054
-0.000491908
-0.00052104
-0.00055595
-0.000596382
-0.000627073
-0.000646701
-0.000666362
-0.000691656
-0.000725294
-0.000764702
-0.000797407
-0.0008194
-0.000843851
-0.00087873
-0.000915593
-0.000947071
-0.000976866
-0.00100959
-0.00104431
-0.0010794
-0.00111544
-0.00115257
-0.00118958
-0.00122628
-0.00126452
-0.00130659
-0.00135316
-0.00140253
-0.00145138
-0.00149637
-0.00153558
-0.00156891
-0.00159769
-0.0016238
-0.001649
-0.0016746
-0.00170132
-0.00172952
-0.00175924
-0.0017904
-0.00182281
-0.00185639
-0.00189093
-0.0019265
-0.00196282
-0.00200014
-0.00203804
-0.00207698
-0.00211637
-0.00215687
-0.00219772
-0.00223971
-0.00228209
-0.00232545
-0.0023695
-0.0024141
-0.00245998
-0.00250578
-0.00255346
-0.00260069
-0.00264986
-0.00269901
-0.00274922
-0.00280064
-0.0028519
-0.00290507
-0.00295801
-0.00301171
-0.00306616
-0.00311932
-0.00317214
-0.00322241
-0.00326774
-0.00330702
0.000192072
0.000223827
0.00021581
0.000197828
0.000193432
0.000201932
0.000192281
0.000135827
5.09491e-05
-2.1561e-05
-5.69147e-05
-7.11694e-05
-0.000110345
-0.000175623
-0.000215637
-0.000210262
-0.000197726
-0.000221268
-0.000271014
-0.000301394
-0.00031519
-0.000356663
-0.000416002
-0.000445229
-0.000449503
-0.00046521
-0.000492261
-0.000517651
-0.000550377
-0.000592107
-0.000626432
-0.000648526
-0.000667035
-0.000689184
-0.00072163
-0.000762822
-0.000797366
-0.000818972
-0.000842167
-0.000876988
-0.000914568
-0.000946082
-0.000975348
-0.00100807
-0.0010434
-0.00107873
-0.00111408
-0.0011502
-0.00118692
-0.0012243
-0.00126341
-0.00130534
-0.00135001
-0.00139591
-0.00144084
-0.00148279
-0.00152066
-0.00155447
-0.00158505
-0.00161365
-0.00164142
-0.00166929
-0.00169781
-0.00172729
-0.00175784
-0.00178951
-0.00182221
-0.00185598
-0.00189063
-0.00192628
-0.00196265
-0.002
-0.00203793
-0.0020769
-0.0021163
-0.00215682
-0.00219768
-0.00223968
-0.00228206
-0.00232543
-0.00236949
-0.00241409
-0.00245998
-0.00250576
-0.00255346
-0.00260067
-0.00264986
-0.00269901
-0.00274922
-0.00280064
-0.00285189
-0.00290507
-0.00295802
-0.00301172
-0.00306619
-0.00311933
-0.00317218
-0.00322247
-0.00326782
-0.00330719
0.000159945
0.000189912
0.000170814
0.000139078
0.000126766
0.000137936
0.000143028
0.000103519
2.93629e-05
-3.75354e-05
-6.9421e-05
-7.62993e-05
-0.000103856
-0.000166266
-0.000218759
-0.000227764
-0.000216394
-0.000233237
-0.00028339
-0.00031685
-0.000322285
-0.000351538
-0.000411787
-0.000450252
-0.000459052
-0.000475453
-0.000502054
-0.000523388
-0.000551001
-0.00059168
-0.000629324
-0.000655819
-0.000675512
-0.00069391
-0.00072229
-0.000764288
-0.000802274
-0.000824534
-0.000845626
-0.000879223
-0.000917377
-0.000949484
-0.000978557
-0.00101091
-0.00104601
-0.00108101
-0.00111597
-0.00115197
-0.0011889
-0.00122636
-0.00126491
-0.0013054
-0.00134802
-0.0013919
-0.00143542
-0.00147689
-0.00151512
-0.00154978
-0.00158138
-0.00161087
-0.00163931
-0.00166762
-0.00169643
-0.00172615
-0.0017569
-0.00178876
-0.00182162
-0.00185551
-0.00189027
-0.00192599
-0.00196242
-0.00199982
-0.00203779
-0.00207679
-0.00211621
-0.00215675
-0.00219762
-0.00223963
-0.00228202
-0.0023254
-0.00236947
-0.00241406
-0.00245997
-0.00250575
-0.00255346
-0.00260066
-0.00264986
-0.002699
-0.00274922
-0.00280065
-0.00285189
-0.00290508
-0.00295803
-0.00301173
-0.00306622
-0.00311936
-0.00317222
-0.00322254
-0.0032679
-0.00330733
0.000116132
0.000151265
0.000134397
9.30001e-05
6.88699e-05
7.48316e-05
8.92616e-05
6.99397e-05
1.01411e-05
-5.51206e-05
-9.11113e-05
-9.53022e-05
-0.000109417
-0.000161725
-0.000220251
-0.000244068
-0.000237721
-0.000244934
-0.00028902
-0.000329996
-0.000336756
-0.000352074
-0.000404951
-0.000451534
-0.000466491
-0.000481991
-0.000509339
-0.000530454
-0.000552605
-0.000589166
-0.000627966
-0.000658153
-0.000681225
-0.000698926
-0.000722104
-0.000761531
-0.000802872
-0.000828068
-0.000847469
-0.000878668
-0.000917124
-0.000950317
-0.000979143
-0.00101073
-0.00104567
-0.00108081
-0.00111555
-0.00115101
-0.00118746
-0.00122469
-0.00126297
-0.00130276
-0.00134396
-0.00138577
-0.00142702
-0.00146661
-0.00150384
-0.00153858
-0.00157116
-0.00160224
-0.00163248
-0.0016625
-0.00169275
-0.00172356
-0.00175509
-0.00178747
-0.00182069
-0.00185483
-0.00188976
-0.0019256
-0.00196212
-0.00199958
-0.0020376
-0.00207664
-0.00211609
-0.00215665
-0.00219754
-0.00223957
-0.00228197
-0.00232536
-0.00236944
-0.00241404
-0.00245995
-0.00250573
-0.00255346
-0.00260065
-0.00264986
-0.002699
-0.00274921
-0.00280066
-0.00285189
-0.0029051
-0.00295805
-0.00301174
-0.00306625
-0.0031194
-0.00317226
-0.0032226
-0.00326797
-0.00330745
6.4343e-05
0.000104904
0.000101276
6.04218e-05
2.54069e-05
1.91407e-05
3.26948e-05
2.9334e-05
-1.33159e-05
-7.31815e-05
-0.000114116
-0.000121711
-0.000125849
-0.00016317
-0.000219087
-0.000254295
-0.000258144
-0.000260008
-0.000293317
-0.000338551
-0.000354511
-0.000361272
-0.000400316
-0.0004498
-0.000472969
-0.00048756
-0.000514366
-0.000538554
-0.00055811
-0.000589204
-0.000626981
-0.000658837
-0.000684934
-0.000705615
-0.000726156
-0.000759809
-0.000801538
-0.000831736
-0.000851868
-0.00087976
-0.000916987
-0.00095159
-0.000981141
-0.00101214
-0.00104658
-0.00108159
-0.00111606
-0.00115114
-0.00118736
-0.0012244
-0.00126222
-0.00130106
-0.00134088
-0.00138121
-0.00142126
-0.0014602
-0.00149739
-0.00153257
-0.00156589
-0.00159777
-0.00162877
-0.00165946
-0.00169028
-0.00172157
-0.00175351
-0.00178623
-0.00181972
-0.00185406
-0.00188915
-0.00192512
-0.00196174
-0.00199929
-0.00203736
-0.00207645
-0.00211594
-0.00215653
-0.00219744
-0.00223949
-0.00228191
-0.00232531
-0.0023694
-0.00241401
-0.00245993
-0.00250571
-0.00255345
-0.00260064
-0.00264985
-0.002699
-0.00274921
-0.00280066
-0.00285189
-0.00290511
-0.00295806
-0.00301176
-0.00306628
-0.00311944
-0.0031723
-0.00322267
-0.00326804
-0.00330754
1.52013e-05
5.22588e-05
6.15844e-05
3.13861e-05
-8.19043e-06
-2.75154e-05
-2.18371e-05
-1.67331e-05
-4.13052e-05
-8.89962e-05
-0.000131433
-0.000148422
-0.000151644
-0.000174679
-0.00022056
-0.000260274
-0.000275526
-0.000278899
-0.000301077
-0.000343057
-0.000369305
-0.000376669
-0.000402414
-0.000447629
-0.000478109
-0.000494113
-0.000518658
-0.000546054
-0.000566446
-0.000592532
-0.00062734
-0.000659319
-0.00068709
-0.000711941
-0.000733264
-0.000761052
-0.000799507
-0.00083385
-0.00085715
-0.0008826
-0.000917374
-0.000952813
-0.000983452
-0.00101383
-0.00104737
-0.00108221
-0.00111671
-0.00115151
-0.00118727
-0.00122383
-0.00126101
-0.00129892
-0.0013375
-0.00137638
-0.00141498
-0.00145273
-0.00148924
-0.00152433
-0.00155812
-0.00159087
-0.00162296
-0.00165476
-0.00168659
-0.00171873
-0.00175134
-0.00178457
-0.00181844
-0.00185308
-0.00188839
-0.00192452
-0.00196127
-0.00199891
-0.00203706
-0.00207621
-0.00211575
-0.00215638
-0.00219732
-0.0022394
-0.00228184
-0.00232525
-0.00236935
-0.00241397
-0.0024599
-0.00250568
-0.00255343
-0.00260063
-0.00264984
-0.002699
-0.0027492
-0.00280067
-0.00285189
-0.00290512
-0.00295808
-0.00301178
-0.00306632
-0.00311948
-0.00317235
-0.00322273
-0.0032681
-0.00330763
-2.59606e-05
-1.02975e-06
1.43975e-05
-5.67297e-07
-3.44433e-05
-6.10415e-05
-6.70569e-05
-6.38081e-05
-7.56093e-05
-0.000108809
-0.00014776
-0.000172611
-0.000180487
-0.000193955
-0.000227069
-0.000265081
-0.000289318
-0.00029916
-0.000314567
-0.000348122
-0.000379609
-0.000393599
-0.000411686
-0.000448121
-0.000481803
-0.000501696
-0.000524021
-0.000552099
-0.000575226
-0.000598719
-0.000629706
-0.000660884
-0.00068913
-0.000716578
-0.000740526
-0.000765213
-0.000798903
-0.000834692
-0.000862017
-0.000886778
-0.000918373
-0.000953334
-0.000985257
-0.00101576
-0.00104846
-0.00108279
-0.00111701
-0.00115127
-0.00118632
-0.0012222
-0.0012587
-0.00129577
-0.00133338
-0.00137126
-0.00140901
-0.00144621
-0.00148254
-0.00151784
-0.00155211
-0.00158552
-0.00161833
-0.00165085
-0.00168335
-0.00171608
-0.00174919
-0.00178284
-0.00181706
-0.00185198
-0.00188751
-0.00192382
-0.00196071
-0.00199846
-0.0020367
-0.00207592
-0.00211552
-0.0021562
-0.00219717
-0.00223928
-0.00228174
-0.00232517
-0.0023693
-0.00241392
-0.00245987
-0.00250565
-0.00255341
-0.00260061
-0.00264983
-0.002699
-0.0027492
-0.00280068
-0.0028519
-0.00290513
-0.0029581
-0.00301181
-0.00306635
-0.00311953
-0.00317239
-0.00322278
-0.00326816
-0.0033077
-5.73777e-05
-4.70467e-05
-3.3762e-05
-3.75292e-05
-6.11168e-05
-8.83196e-05
-0.000103713
-0.000106632
-0.000112528
-0.000133952
-0.000165634
-0.000192605
-0.000206654
-0.000218033
-0.000241339
-0.000273559
-0.000300956
-0.00031708
-0.000331251
-0.00035696
-0.000387895
-0.000408571
-0.000425313
-0.000453134
-0.000485301
-0.000509309
-0.000531262
-0.00055797
-0.000583257
-0.000606496
-0.000633982
-0.000663677
-0.000692068
-0.000720426
-0.000746747
-0.000771125
-0.000800581
-0.000834846
-0.000865102
-0.0008911
-0.000920506
-0.000954058
-0.000986584
-0.00101728
-0.00104905
-0.00108257
-0.00111655
-0.00115067
-0.00118543
-0.00122096
-0.00125704
-0.00129351
-0.00133032
-0.00136729
-0.00140414
-0.0014406
-0.00147645
-0.00151159
-0.00154603
-0.00157988
-0.0016133
-0.0016465
-0.00167969
-0.00171306
-0.00174673
-0.00178086
-0.00181547
-0.0018507
-0.00188648
-0.001923
-0.00196005
-0.00199793
-0.00203628
-0.00207558
-0.00211524
-0.00215598
-0.002197
-0.00223914
-0.00228163
-0.00232508
-0.00236923
-0.00241386
-0.00245983
-0.00250562
-0.00255339
-0.00260059
-0.00264982
-0.00269899
-0.00274919
-0.00280068
-0.00285191
-0.00290515
-0.00295813
-0.00301183
-0.00306639
-0.00311957
-0.00317244
-0.00322284
-0.00326822
-0.00330777
-8.11246e-05
-8.24672e-05
-7.66371e-05
-7.73634e-05
-9.20313e-05
-0.000114284
-0.000132865
-0.000142279
-0.000149018
-0.000163344
-0.000186521
-0.000211469
-0.000230011
-0.00024311
-0.000260809
-0.000286327
-0.000312441
-0.000332749
-0.000349183
-0.000370028
-0.00039689
-0.000420915
-0.000439864
-0.000462574
-0.000490886
-0.000516883
-0.000539591
-0.000564504
-0.000590508
-0.000614698
-0.000640091
-0.000667985
-0.000696009
-0.000724004
-0.000751331
-0.000776857
-0.000804255
-0.000835948
-0.000867125
-0.00089479
-0.000923109
-0.000954828
-0.000987296
-0.00101866
-0.00105035
-0.00108343
-0.00111719
-0.00115107
-0.00118529
-0.00122007
-0.00125532
-0.00129093
-0.00132684
-0.00136295
-0.00139907
-0.00143501
-0.0014706
-0.00150575
-0.00154042
-0.00157467
-0.00160861
-0.00164239
-0.00167616
-0.00171007
-0.00174423
-0.00177878
-0.00181376
-0.00184931
-0.00188535
-0.00192208
-0.0019593
-0.00199733
-0.00203579
-0.00207518
-0.00211492
-0.00215572
-0.00219679
-0.00223897
-0.0022815
-0.00232498
-0.00236915
-0.0024138
-0.00245978
-0.00250558
-0.00255336
-0.00260058
-0.0026498
-0.00269899
-0.00274919
-0.00280069
-0.00285192
-0.00290516
-0.00295815
-0.00301186
-0.00306643
-0.00311962
-0.00317249
-0.00322289
-0.00326827
-0.00330783
-0.000103519
-0.000111636
-0.000113944
-0.000116144
-0.000124952
-0.000140963
-0.000158517
-0.000172024
-0.000181764
-0.000193364
-0.000210771
-0.000231825
-0.000251064
-0.000266621
-0.000282574
-0.0003027
-0.000325882
-0.000347932
-0.000366468
-0.000385177
-0.000408355
-0.000432599
-0.000453418
-0.000474265
-0.000499215
-0.000524977
-0.000548442
-0.000572336
-0.000597778
-0.000622358
-0.000646831
-0.000673357
-0.000700855
-0.000728207
-0.000755493
-0.000782024
-0.000808811
-0.000838177
-0.000868851
-0.000898013
-0.0009267
-0.000957343
-0.000989295
-0.00102083
-0.0010522
-0.00108438
-0.00111732
-0.00115061
-0.00118426
-0.00121847
-0.00125319
-0.00128828
-0.00132365
-0.0013592
-0.0013948
-0.00143031
-0.00146561
-0.00150065
-0.00153539
-0.00156988
-0.00160418
-0.00163839
-0.00167263
-0.00170702
-0.00174163
-0.0017766
-0.00181194
-0.0018478
-0.0018841
-0.00192105
-0.00195846
-0.00199665
-0.00203523
-0.00207474
-0.00211456
-0.00215543
-0.00219656
-0.00223878
-0.00228135
-0.00232486
-0.00236905
-0.00241372
-0.00245972
-0.00250554
-0.00255333
-0.00260055
-0.00264979
-0.00269898
-0.00274919
-0.00280069
-0.00285193
-0.00290518
-0.00295818
-0.00301189
-0.00306647
-0.00311966
-0.00317253
-0.00322294
-0.00326832
-0.00330788
-0.000127081
-0.000137106
-0.000144081
-0.000149354
-0.000157097
-0.000169428
-0.000184413
-0.000198527
-0.000210282
-0.000221946
-0.000236386
-0.000253732
-0.000271711
-0.000288042
-0.000303744
-0.000321944
-0.000342739
-0.000363215
-0.00038199
-0.00040101
-0.000422389
-0.000444854
-0.00046601
-0.000486838
-0.000509668
-0.00053376
-0.000557316
-0.000580975
-0.000605464
-0.000629803
-0.000654193
-0.000679886
-0.000706372
-0.000732874
-0.000759854
-0.00078709
-0.000814258
-0.000842533
-0.00087222
-0.000901682
-0.00093048
-0.000960028
-0.000990797
-0.00102191
-0.00105309
-0.00108486
-0.0011174
-0.00115042
-0.00118378
-0.00121756
-0.00125174
-0.00128624
-0.00132099
-0.00135593
-0.00139099
-0.00142606
-0.00146108
-0.00149599
-0.00153077
-0.00156544
-0.00160003
-0.00163461
-0.00166924
-0.00170404
-0.00173905
-0.00177439
-0.00181007
-0.00184622
-0.00188279
-0.00191997
-0.00195757
-0.00199591
-0.00203463
-0.00207424
-0.00211416
-0.0021551
-0.0021963
-0.00223857
-0.00228118
-0.00232473
-0.00236895
-0.00241364
-0.00245966
-0.00250549
-0.00255329
-0.00260053
-0.00264977
-0.00269897
-0.00274918
-0.0028007
-0.00285194
-0.0029052
-0.0029582
-0.00301192
-0.00306651
-0.00311971
-0.00317258
-0.00322299
-0.00326837
-0.00330793
-0.000152386
-0.00016217
-0.000171104
-0.00017891
-0.000187066
-0.000197268
-0.000209746
-0.000223141
-0.000235996
-0.000248272
-0.000261244
-0.000275991
-0.000292205
-0.000308723
-0.000325122
-0.000341915
-0.000359687
-0.000378718
-0.000398368
-0.00041758
-0.00043676
-0.000457083
-0.000478284
-0.00049949
-0.00052109
-0.000543775
-0.000567028
-0.000590156
-0.000613467
-0.000637421
-0.000662019
-0.000687216
-0.000712912
-0.000739065
-0.000765809
-0.000792832
-0.000819711
-0.00084701
-0.0008754
-0.000904351
-0.000933244
-0.000962557
-0.000992814
-0.0010237
-0.00105481
-0.00108628
-0.00111828
-0.00115075
-0.00118358
-0.00121678
-0.00125037
-0.00128432
-0.00131855
-0.00135302
-0.00138766
-0.0014224
-0.00145718
-0.00149198
-0.00152675
-0.00156152
-0.0015963
-0.00163114
-0.00166608
-0.0017012
-0.00173654
-0.00177221
-0.00180819
-0.00184462
-0.00188143
-0.00191883
-0.00195661
-0.00199512
-0.00203398
-0.00207371
-0.00211372
-0.00215475
-0.00219601
-0.00223834
-0.002281
-0.00232458
-0.00236883
-0.00241355
-0.00245959
-0.00250544
-0.00255325
-0.0026005
-0.00264975
-0.00269896
-0.00274918
-0.0028007
-0.00285195
-0.00290521
-0.00295823
-0.00301196
-0.00306654
-0.00311975
-0.00317262
-0.00322303
-0.00326841
-0.00330798
-0.000177751
-0.000186346
-0.000195372
-0.000204304
-0.000213404
-0.000223447
-0.000234801
-0.000247026
-0.000259359
-0.0002716
-0.00028439
-0.000298392
-0.000313528
-0.000329096
-0.000344571
-0.00036043
-0.000377565
-0.000395811
-0.000414135
-0.000432273
-0.00045107
-0.000470976
-0.00049132
-0.000511633
-0.000532546
-0.000554522
-0.000576935
-0.000599382
-0.000622489
-0.000646527
-0.000670814
-0.000695089
-0.000719843
-0.000745294
-0.00077126
-0.000797602
-0.000824281
-0.000851457
-0.000879412
-0.000908022
-0.000936888
-0.00096601
-0.000995689
-0.00102594
-0.00105658
-0.00108759
-0.00111907
-0.00115105
-0.00118345
-0.00121624
-0.0012494
-0.00128291
-0.00131671
-0.00135077
-0.00138503
-0.00141946
-0.00145401
-0.00148866
-0.00152339
-0.0015582
-0.00159311
-0.00162813
-0.00166331
-0.00169869
-0.00173431
-0.00177024
-0.00180648
-0.00184315
-0.00188018
-0.00191777
-0.00195573
-0.00199438
-0.00203337
-0.00207321
-0.00211331
-0.00215442
-0.00219574
-0.00223813
-0.00228083
-0.00232444
-0.00236872
-0.00241347
-0.00245952
-0.00250539
-0.00255322
-0.00260048
-0.00264973
-0.00269895
-0.00274918
-0.00280071
-0.00285197
-0.00290523
-0.00295826
-0.00301199
-0.00306658
-0.00311979
-0.00317267
-0.00322307
-0.00326845
-0.00330802
-0.000201191
-0.000209502
-0.000218559
-0.000227918
-0.00023741
-0.000247254
-0.000257787
-0.000269137
-0.000281141
-0.00029356
-0.000306321
-0.000319564
-0.000333477
-0.000348096
-0.000363329
-0.000379097
-0.00039532
-0.00041199
-0.000429263
-0.000447186
-0.000465601
-0.000484516
-0.000504121
-0.000524389
-0.00054504
-0.000565946
-0.00058733
-0.000609442
-0.000632158
-0.000655135
-0.000678328
-0.000702084
-0.000726612
-0.000751728
-0.000777261
-0.000803272
-0.000829758
-0.000856634
-0.000883973
-0.000911867
-0.000940218
-0.000968946
-0.000998152
-0.00102791
-0.00105816
-0.00108883
-0.00111993
-0.00115148
-0.00118345
-0.0012158
-0.00124852
-0.00128159
-0.00131497
-0.00134865
-0.00138257
-0.00141672
-0.00145106
-0.00148558
-0.00152025
-0.00155508
-0.00159006
-0.00162522
-0.00166057
-0.00169617
-0.00173201
-0.00176818
-0.00180465
-0.00184155
-0.00187879
-0.00191657
-0.00195471
-0.00199352
-0.00203264
-0.0020726
-0.00211281
-0.002154
-0.0021954
-0.00223785
-0.0022806
-0.00232426
-0.00236858
-0.00241335
-0.00245943
-0.00250532
-0.00255316
-0.00260044
-0.00264971
-0.00269894
-0.00274918
-0.00280071
-0.00285198
-0.00290525
-0.00295828
-0.00301202
-0.00306661
-0.00311983
-0.0031727
-0.00322311
-0.00326849
-0.00330806
-0.000222784
-0.000230968
-0.000239735
-0.000248953
-0.000258524
-0.000268492
-0.00027898
-0.000290059
-0.000301676
-0.000313712
-0.000326137
-0.000339059
-0.000352602
-0.000366771
-0.000381445
-0.000396528
-0.000412104
-0.000428349
-0.000445279
-0.000462742
-0.000480658
-0.000499104
-0.000518084
-0.000537453
-0.000557199
-0.000577554
-0.000598647
-0.00062027
-0.000642227
-0.00066464
-0.000687701
-0.000711349
-0.000735426
-0.000759915
-0.000784893
-0.000810398
-0.00083639
-0.000862824
-0.000889739
-0.000917195
-0.000945168
-0.000973589
-0.00100245
-0.0010318
-0.00106162
-0.00109188
-0.00112256
-0.00115367
-0.0011852
-0.00121713
-0.00124944
-0.0012821
-0.0013151
-0.00134841
-0.00138201
-0.00141587
-0.00144996
-0.00148429
-0.00151882
-0.00155357
-0.00158852
-0.0016237
-0.00165911
-0.00169479
-0.00173074
-0.00176702
-0.00180362
-0.00184065
-0.00187801
-0.00191591
-0.00195414
-0.00199305
-0.00203225
-0.00207228
-0.00211255
-0.00215379
-0.00219524
-0.00223772
-0.0022805
-0.00232419
-0.00236852
-0.00241331
-0.00245941
-0.0025053
-0.00255315
-0.00260044
-0.00264971
-0.00269895
-0.00274919
-0.00280073
-0.002852
-0.00290527
-0.00295831
-0.00301205
-0.00306665
-0.00311986
-0.00317274
-0.00322315
-0.00326852
-0.00330809
-0.00023927
-0.000247401
-0.00025603
-0.000265142
-0.000274681
-0.000284613
-0.000294956
-0.00030575
-0.000317029
-0.000328791
-0.000341021
-0.000353716
-0.000366891
-0.000380571
-0.000394775
-0.00040951
-0.000424779
-0.000440574
-0.000456884
-0.00047371
-0.00049105
-0.000508893
-0.000527256
-0.000546182
-0.000565694
-0.000585746
-0.000606271
-0.000627268
-0.000648804
-0.000670908
-0.00069352
-0.00071659
-0.000740151
-0.000764254
-0.000788893
-0.000814036
-0.000839677
-0.000865814
-0.000892439
-0.000919556
-0.000947168
-0.000975256
-0.00100381
-0.00103283
-0.00106233
-0.00109228
-0.00112267
-0.00115349
-0.00118474
-0.00121639
-0.00124843
-0.00128084
-0.0013136
-0.00134669
-0.0013801
-0.0014138
-0.00144778
-0.00148203
-0.00151653
-0.00155128
-0.00158628
-0.00162154
-0.00165706
-0.00169287
-0.00172897
-0.00176541
-0.00180217
-0.00183935
-0.00187686
-0.0019149
-0.00195327
-0.0019923
-0.00203161
-0.00207174
-0.00211209
-0.00215341
-0.00219492
-0.00223746
-0.00228029
-0.00232401
-0.00236838
-0.0024132
-0.00245932
-0.00250523
-0.0025531
-0.0026004
-0.00264968
-0.00269893
-0.00274918
-0.00280072
-0.002852
-0.00290528
-0.00295832
-0.00301207
-0.00306667
-0.00311989
-0.00317277
-0.00322317
-0.00326855
-0.00330811
-0.000258572
-0.000266995
-0.000275843
-0.00028509
-0.000294708
-0.000304681
-0.000315023
-0.000325765
-0.000336937
-0.000348556
-0.000360625
-0.000373148
-0.00038614
-0.000399617
-0.000413591
-0.000428057
-0.000443008
-0.00045845
-0.0004744
-0.000490869
-0.000507854
-0.000525355
-0.000543376
-0.000561913
-0.000580947
-0.000600471
-0.000620514
-0.000641103
-0.000662222
-0.00068384
-0.000705957
-0.000728598
-0.00075177
-0.000775452
-0.000799627
-0.000824299
-0.000849475
-0.00087515
-0.000901315
-0.00092797
-0.000955116
-0.000982748
-0.00101086
-0.00103943
-0.00106847
-0.00109796
-0.0011279
-0.00115827
-0.00118906
-0.00122026
-0.00125186
-0.00128384
-0.00131618
-0.00134888
-0.00138191
-0.00141527
-0.00144893
-0.0014829
-0.00151716
-0.0015517
-0.00158654
-0.00162166
-0.00165708
-0.00169282
-0.00172887
-0.00176528
-0.00180203
-0.00183921
-0.00187673
-0.00191478