/*--------------------------------*- C++ -*----------------------------------*\
| =========                 |                                                 |
| \\      /  F ield         | OpenFOAM: The Open Source CFD Toolbox           |
|  \\    /   O peration     | Version:  v2012                                 |
|   \\  /    A nd           | Website:  www.openfoam.com                      |
|    \\/     M anipulation  |                                                 |
\*---------------------------------------------------------------------------*/
FoamFile
{
    version     2.0;
    format      ascii;
    class       surfaceScalarField;
    location    "0.2";
    object      phi;
}
// * * * * * * * * * * * * * * * * * * * * * * * * * * * * * * * * * * * * * //

dimensions      [0 3 -1 0 0 0 0];
oriented        oriented;


internalField   nonuniform List<scalar> 
4660
(
1.99014e-05
3.27667e-09
1.99018e-05
-1.30364e-08
1.99012e-05
-4.74565e-09
1.99005e-05
7.71761e-09
1.98987e-05
2.02139e-08
1.9898e-05
1.72115e-08
1.98981e-05
4.56671e-09
1.98989e-05
-9.77702e-09
1.98999e-05
-1.83569e-08
1.99004e-05
-1.95174e-08
1.99007e-05
-1.51824e-08
1.99006e-05
-8.81928e-09
1.99e-05
-2.15298e-09
1.98983e-05
3.41416e-09
1.98954e-05
8.03841e-09
1.98915e-05
1.07736e-08
1.98869e-05
1.24354e-08
1.98822e-05
1.31373e-08
1.98777e-05
1.27289e-08
1.19925e-08
1.98736e-05
2.16613e-05
1.7955e-09
2.16575e-05
-9.25188e-09
2.16583e-05
-5.52094e-09
2.16579e-05
8.07164e-09
2.16611e-05
1.70342e-08
2.16632e-05
1.50713e-08
2.16635e-05
4.27425e-09
2.16615e-05
-7.78284e-09
2.16581e-05
-1.48752e-08
2.16539e-05
-1.53838e-08
2.16502e-05
-1.14333e-08
2.1647e-05
-5.59636e-09
2.16445e-05
3.46443e-10
2.16423e-05
5.56467e-09
2.16407e-05
9.67173e-09
2.16401e-05
1.13901e-08
2.16404e-05
1.2111e-08
2.16414e-05
1.21611e-08
2.16426e-05
1.15214e-08
1.07609e-08
2.16438e-05
2.35764e-05
-7.90644e-11
2.35719e-05
-4.77843e-09
2.35721e-05
-5.76594e-09
2.3573e-05
7.24818e-09
2.3576e-05
1.40233e-08
2.35786e-05
1.24275e-08
2.35789e-05
3.99516e-09
2.35767e-05
-5.56235e-09
2.35726e-05
-1.08108e-08
2.35677e-05
-1.0426e-08
2.35632e-05
-6.96599e-09
2.35599e-05
-2.31909e-09
2.3558e-05
2.28953e-09
2.35573e-05
6.21366e-09
2.35579e-05
9.05309e-09
2.35586e-05
1.07613e-08
2.35594e-05
1.12481e-08
2.35602e-05
1.13463e-08
2.35608e-05
1.09987e-08
1.03108e-08
2.35612e-05
2.56595e-05
-1.13268e-09
2.56569e-05
-2.15922e-09
2.5655e-05
-3.92627e-09
2.56584e-05
3.93618e-09
2.566e-05
1.24079e-08
2.5661e-05
1.13449e-08
2.5661e-05
4.03488e-09
2.5659e-05
-3.51217e-09
2.56555e-05
-7.39607e-09
2.56517e-05
-6.61736e-09
2.56484e-05
-3.59339e-09
2.56459e-05
1.15226e-10
2.56445e-05
3.68249e-09
2.5644e-05
6.77961e-09
2.56439e-05
9.13909e-09
2.56441e-05
1.05825e-08
2.56444e-05
1.08982e-08
2.5645e-05
1.07356e-08
2.56458e-05
1.02641e-08
9.70383e-09
2.56464e-05
2.79271e-05
-1.59928e-09
2.79261e-05
-1.1432e-09
2.79226e-05
-4.38257e-10
2.79256e-05
9.20248e-10
2.79287e-05
9.33426e-09
2.79291e-05
1.08775e-08
2.79287e-05
4.44434e-09
2.79271e-05
-1.89564e-09
2.79238e-05
-4.13317e-09
2.792e-05
-2.81466e-09
2.79168e-05
-3.47146e-10
2.79146e-05
2.28929e-09
2.79134e-05
4.86914e-09
2.7913e-05
7.18614e-09
2.79131e-05
9.0278e-09
2.79136e-05
1.00941e-08
2.79143e-05
1.01828e-08
2.79152e-05
9.83151e-09
2.7916e-05
9.45766e-09
9.09406e-09
2.79167e-05
3.03948e-05
-1.14643e-09
3.03955e-05
-1.80922e-09
3.03923e-05
2.74692e-09
3.03931e-05
1.16656e-10
3.03973e-05
5.14737e-09
3.03974e-05
1.07254e-08
3.03955e-05
6.34325e-09
3.03941e-05
-4.35984e-10
3.03921e-05
-2.14976e-09
3.03893e-05
-3.26723e-11
3.03867e-05
2.2394e-09
3.03851e-05
3.95297e-09
3.03843e-05
5.63966e-09
3.0384e-05
7.4636e-09
3.03841e-05
8.91465e-09
3.03846e-05
9.66013e-09
3.03852e-05
9.59737e-09
3.03857e-05
9.25351e-09
3.03862e-05
9.0148e-09
8.70506e-09
3.03866e-05
3.30813e-05
-3.13813e-10
3.30824e-05
-2.87681e-09
3.30804e-05
4.72948e-09
3.3079e-05
1.55327e-09
3.30826e-05
1.58253e-09
3.30847e-05
8.60158e-09
3.30827e-05
8.27184e-09
3.30804e-05
1.88847e-09
3.3079e-05
-7.22139e-10
3.3077e-05
1.922e-09
3.30747e-05
4.61719e-09
3.3073e-05
5.59894e-09
3.30724e-05
6.23312e-09
3.30725e-05
7.38364e-09
3.30728e-05
8.57507e-09
3.30732e-05
9.26076e-09
3.30737e-05
9.18103e-09
3.30741e-05
8.77457e-09
3.30747e-05
8.50105e-09
8.25672e-09
3.30751e-05
3.60057e-05
5.73313e-10
3.60062e-05
-3.36607e-09
3.60062e-05
4.73894e-09
3.6004e-05
3.75067e-09
3.60054e-05
1.96781e-10
3.60082e-05
5.76918e-09
3.60071e-05
9.37058e-09
3.60042e-05
4.80948e-09
3.60026e-05
8.70047e-10
3.60019e-05
2.55759e-09
3.60007e-05
5.87004e-09
3.59993e-05
6.98177e-09
3.59987e-05
6.83393e-09
3.59989e-05
7.23171e-09
3.59992e-05
8.23864e-09
3.59995e-05
8.9502e-09
3.59997e-05
8.99172e-09
3.6e-05
8.45513e-09
3.60005e-05
8.0509e-09
7.83038e-09
3.60009e-05
3.9189e-05
1.12023e-09
3.91886e-05
-2.98251e-09
3.91895e-05
3.78782e-09
3.91877e-05
5.56229e-09
3.91871e-05
8.19458e-10
3.91896e-05
3.29192e-09
3.91903e-05
8.59223e-09
3.9188e-05
7.1578e-09
3.91857e-05
3.13769e-09
3.91851e-05
3.1407e-09
3.91848e-05
6.21501e-09
3.91839e-05
7.87503e-09
3.91831e-05
7.6532e-09
3.91831e-05
7.27106e-09
3.91835e-05
7.76224e-09
3.9184e-05
8.44212e-09
3.91844e-05
8.63771e-09
3.91846e-05
8.24898e-09
3.9185e-05
7.69239e-09
7.41611e-09
3.91854e-05
4.26536e-05
1.32624e-09
4.26525e-05
-1.84947e-09
4.26537e-05
2.54902e-09
4.26532e-05
6.09724e-09
4.26515e-05
2.45348e-09
4.26526e-05
2.26743e-09
4.2654e-05
7.1359e-09
4.26528e-05
8.35147e-09
4.26506e-05
5.34051e-09
4.26497e-05
4.03308e-09
4.265e-05
5.97558e-09
4.26499e-05
7.97551e-09
4.26494e-05
8.15374e-09
4.26491e-05
7.52561e-09
4.26494e-05
7.44369e-09
4.265e-05
7.8843e-09
4.26504e-05
8.20254e-09
4.26507e-05
8.00249e-09
4.26509e-05
7.48165e-09
7.06821e-09
4.26512e-05
4.64244e-05
1.2744e-09
4.64231e-05
-6.23521e-10
4.64239e-05
1.81506e-09
4.64242e-05
5.82965e-09
4.64226e-05
3.96727e-09
4.64224e-05
2.53244e-09
4.64238e-05
5.7268e-09
4.64239e-05
8.19515e-09
4.64224e-05
6.8584e-09
4.64212e-05
5.23239e-09
4.64213e-05
5.93119e-09
4.64216e-05
7.60042e-09
4.64216e-05
8.20056e-09
4.64214e-05
7.75147e-09
4.64215e-05
7.31956e-09
4.6422e-05
7.41824e-09
4.64225e-05
7.62477e-09
4.6423e-05
7.56795e-09
4.64233e-05
7.18575e-09
6.74903e-09
4.64236e-05
5.05283e-05
1.09904e-09
5.05273e-05
4.61367e-10
5.05274e-05
1.66896e-09
5.05282e-05
5.03343e-09
5.05273e-05
4.82502e-09
5.05264e-05
3.43134e-09
5.05271e-05
5.01297e-09
5.05279e-05
7.45012e-09
5.05273e-05
7.47451e-09
5.05263e-05
6.22934e-09
5.05261e-05
6.09781e-09
5.05266e-05
7.10795e-09
5.0527e-05
7.81743e-09
5.05271e-05
7.6716e-09
5.05272e-05
7.2292e-09
5.05276e-05
7.02684e-09
5.05281e-05
7.06833e-09
5.05286e-05
7.05124e-09
5.0529e-05
6.80359e-09
6.43079e-09
5.05293e-05
5.49949e-05
9.33846e-10
5.49942e-05
1.16237e-09
5.4994e-05
1.85467e-09
5.49948e-05
4.3266e-09
5.49945e-05
5.07665e-09
5.49937e-05
4.25219e-09
5.49938e-05
4.84943e-09
5.49947e-05
6.63854e-09
5.49948e-05
7.32872e-09
5.49943e-05
6.70963e-09
5.49941e-05
6.31089e-09
5.49945e-05
6.7191e-09
5.4995e-05
7.26704e-09
5.49954e-05
7.32836e-09
5.49956e-05
7.01688e-09
5.49959e-05
6.71054e-09
5.49964e-05
6.56399e-09
5.4997e-05
6.47913e-09
5.49975e-05
6.28695e-09
5.99233e-09
5.4998e-05
5.98563e-05
8.02657e-10
5.9856e-05
1.54258e-09
5.98557e-05
2.13561e-09
5.98562e-05
3.82693e-09
5.98564e-05
4.8879e-09
5.98559e-05
4.68965e-09
5.98559e-05
4.89824e-09
5.98565e-05
6.01502e-09
5.9857e-05
6.80632e-09
5.98571e-05
6.6809e-09
5.9857e-05
6.35113e-09
5.98574e-05
6.39319e-09
5.98579e-05
6.67502e-09
5.98585e-05
6.764e-09
5.98589e-05
6.57967e-09
5.98594e-05
6.2981e-09
5.98599e-05
6.06681e-09
5.98604e-05
5.90733e-09
5.9861e-05
5.73496e-09
5.50101e-09
5.98615e-05
6.51475e-05
7.1519e-10
6.51474e-05
1.67239e-09
6.51472e-05
2.31114e-09
6.51475e-05
3.48589e-09
6.51479e-05
4.50332e-09
6.51479e-05
4.71874e-09
6.51479e-05
4.87962e-09
6.51484e-05
5.51837e-09
6.51491e-05
6.14339e-09
6.51495e-05
6.25924e-09
6.51498e-05
6.08542e-09
6.51502e-05
5.99827e-09
6.51508e-05
6.06639e-09
6.51514e-05
6.11341e-09
6.5152e-05
6.00366e-09
6.51525e-05
5.78505e-09
6.5153e-05
5.54917e-09
6.51536e-05
5.33887e-09
6.51542e-05
5.13743e-09
4.92059e-09
6.51548e-05
7.09064e-05
6.43891e-10
7.09064e-05
1.63472e-09
7.09064e-05
2.31814e-09
7.09067e-05
3.18127e-09
7.09072e-05
4.02346e-09
7.09075e-05
4.43029e-09
7.09078e-05
4.63138e-09
7.09083e-05
5.00493e-09
7.0909e-05
5.42754e-09
7.09096e-05
5.60267e-09
7.09102e-05
5.5522e-09
7.09107e-05
5.46269e-09
7.09114e-05
5.4287e-09
7.09121e-05
5.40457e-09
7.09128e-05
5.30575e-09
7.09134e-05
5.12737e-09
7.09141e-05
4.91431e-09
7.09147e-05
4.70251e-09
7.09153e-05
4.50087e-09
4.30744e-09
7.09159e-05
7.71744e-05
5.66181e-10
7.71746e-05
1.47981e-09
7.71748e-05
2.14438e-09
7.71751e-05
2.81365e-09
7.71757e-05
3.46544e-09
7.71762e-05
3.89746e-09
7.71767e-05
4.13971e-09
7.71773e-05
4.38098e-09
7.71781e-05
4.64097e-09
7.71789e-05
4.80121e-09
7.71797e-05
4.81444e-09
7.71804e-05
4.74617e-09
7.71811e-05
4.67116e-09
7.71819e-05
4.599e-09
7.71827e-05
4.50102e-09
7.71835e-05
4.36383e-09
7.71842e-05
4.19859e-09
7.71849e-05
4.02134e-09
7.71856e-05
3.84072e-09
3.64997e-09
7.71862e-05
8.39965e-05
4.67102e-10
8.39968e-05
1.22693e-09
8.39971e-05
1.80361e-09
8.39976e-05
2.32578e-09
8.39983e-05
2.81105e-09
8.3999e-05
3.17919e-09
8.39997e-05
3.41853e-09
8.40005e-05
3.59983e-09
8.40014e-05
3.75865e-09
8.40023e-05
3.86616e-09
8.40032e-05
3.89486e-09
8.40041e-05
3.85997e-09
8.4005e-05
3.79479e-09
8.40059e-05
3.7163e-09
8.40068e-05
3.62192e-09
8.40076e-05
3.50556e-09
8.40084e-05
3.36913e-09
8.40092e-05
3.22032e-09
8.401e-05
3.06671e-09
2.91661e-09
8.40107e-05
9.14217e-05
3.4796e-10
9.1422e-05
8.98546e-10
9.14225e-05
1.32566e-09
9.14231e-05
1.70264e-09
9.14239e-05
2.04193e-09
9.14248e-05
2.31344e-09
9.14257e-05
2.50597e-09
9.14266e-05
2.64295e-09
9.14277e-05
2.74533e-09
9.14287e-05
2.81165e-09
9.14298e-05
2.83433e-09
9.14308e-05
2.81728e-09
9.14318e-05
2.77341e-09
9.14328e-05
2.71338e-09
9.14338e-05
2.64091e-09
9.14348e-05
2.55596e-09
9.14357e-05
2.45939e-09
9.14365e-05
2.35402e-09
9.14374e-05
2.2435e-09
2.12749e-09
9.14382e-05
9.95033e-05
9.95037e-05
9.95044e-05
9.95052e-05
9.95061e-05
9.95071e-05
9.95082e-05
9.95094e-05
9.95106e-05
9.95118e-05
9.9513e-05
9.95142e-05
9.95154e-05
9.95165e-05
9.95177e-05
9.95187e-05
9.95198e-05
9.95208e-05
9.95217e-05
9.95226e-05
1.98611e-05
1.2474e-08
1.98473e-05
1.38312e-08
1.98314e-05
1.5944e-08
1.98133e-05
1.80294e-08
1.97938e-05
1.94967e-08
1.97732e-05
2.06701e-08
1.97516e-05
2.15807e-08
1.97297e-05
2.19189e-08
1.97077e-05
2.20131e-08
1.96852e-05
2.24433e-08
1.96621e-05
2.31462e-08
1.96382e-05
2.38574e-08
1.96137e-05
2.44882e-08
1.95887e-05
2.50648e-08
1.95632e-05
2.54835e-08
1.95375e-05
2.56524e-08
1.95119e-05
2.55922e-08
1.94865e-05
2.54739e-08
1.9461e-05
2.54725e-08
1.94352e-05
2.57535e-08
1.94088e-05
2.64338e-08
1.93814e-05
2.73622e-08
1.93531e-05
2.83498e-08
1.93237e-05
2.93597e-08
1.92936e-05
3.01397e-08
1.92633e-05
3.02826e-08
1.92333e-05
2.99568e-08
1.92034e-05
2.9921e-08
1.91729e-05
3.0555e-08
1.91414e-05
3.14694e-08
1.91092e-05
3.22428e-08
1.90762e-05
3.29128e-08
1.90427e-05
3.34953e-08
1.90089e-05
3.37984e-08
1.89749e-05
3.40445e-08
1.89402e-05
3.47367e-08
1.89045e-05
3.5667e-08
1.88684e-05
3.61391e-08
1.88321e-05
3.62715e-08
1.87952e-05
3.68991e-08
1.87571e-05
3.80711e-08
1.87183e-05
3.88201e-08
1.86796e-05
3.87227e-08
1.86409e-05
3.87208e-08
1.8601e-05
3.98307e-08
1.85594e-05
4.15979e-08
1.85169e-05
4.25001e-08
1.84751e-05
4.18185e-08
1.84345e-05
4.06581e-08
1.83935e-05
4.09234e-08
1.83501e-05
4.33912e-08
1.83033e-05
4.68169e-08
1.82545e-05
4.87725e-08
1.82072e-05
4.73018e-08
1.81652e-05
4.20217e-08
1.81312e-05
3.40677e-08
1.81059e-05
2.52566e-08
1.80887e-05
1.7195e-08
1.80779e-05
1.08031e-08
1.80716e-05
6.29795e-09
1.80682e-05
3.4319e-09
1.80664e-05
1.77081e-09
1.80655e-05
8.8749e-10
1.80651e-05
4.55132e-10
1.80648e-05
2.57437e-10
1.80646e-05
1.72962e-10
1.80645e-05
1.3388e-10
1.80644e-05
1.16552e-10
1.80643e-05
1.00478e-10
1.80642e-05
9.35966e-11
1.80641e-05
7.74412e-11
1.8064e-05
7.57686e-11
1.8064e-05
5.63692e-11
1.80639e-05
6.176e-11
1.80639e-05
3.80088e-11
1.80638e-05
5.09512e-11
1.80638e-05
2.41341e-11
1.80638e-05
4.02527e-11
1.80637e-05
1.79899e-11
1.80637e-05
2.49473e-11
1.80637e-05
2.28659e-11
1.80637e-05
2.72371e-12
1.80637e-05
3.61392e-11
1.80637e-05
-1.90375e-11
1.80636e-05
4.33955e-11
1.80637e-05
-2.22877e-11
1.80636e-05
2.68036e-11
1.80636e-05
1.47628e-12
1.80636e-05
-6.0257e-12
1.80636e-05
2.48385e-11
1.80636e-05
-1.53891e-11
1.80636e-05
1.37578e-11
1.80636e-05
7.11383e-12
1.80636e-05
-2.06842e-12
1.80636e-05
1.03146e-11
1.80636e-05
2.57969e-11
1.80636e-05
-1.26921e-11
1.80635e-05
7.47865e-11
1.80635e-05
-2.45287e-11
2.10881e-10
2.16451e-05
1.11756e-08
2.16468e-05
1.21293e-08
2.1649e-05
1.37696e-08
2.16512e-05
1.578e-08
2.16532e-05
1.75588e-08
2.16547e-05
1.91254e-08
2.16557e-05
2.055e-08
2.16561e-05
2.15102e-08
2.16563e-05
2.18769e-08
2.16567e-05
2.20317e-08
2.16574e-05
2.24198e-08
2.16583e-05
2.29567e-08
2.16593e-05
2.34694e-08
2.16604e-05
2.40402e-08
2.16612e-05
2.46541e-08
2.16617e-05
2.51428e-08
2.16619e-05
2.54005e-08
2.16619e-05
2.54992e-08
2.16617e-05
2.55895e-08
2.16616e-05
2.58887e-08
2.16615e-05
2.65342e-08
2.16615e-05
2.73694e-08
2.16616e-05
2.82672e-08
2.16617e-05
2.92504e-08
2.16618e-05
3.00664e-08
2.16617e-05
3.03463e-08
2.16614e-05
3.02811e-08
2.16608e-05
3.04595e-08
2.16603e-05
3.11083e-08
2.16598e-05
3.19624e-08
2.16593e-05
3.27439e-08
2.16588e-05
3.34538e-08
2.16581e-05
3.41069e-08
2.16574e-05
3.45567e-08
2.16565e-05
3.49326e-08
2.16556e-05
3.56363e-08
2.16547e-05
3.65562e-08
2.16537e-05
3.71338e-08
2.16525e-05
3.74349e-08
2.16513e-05
3.81406e-08
2.16501e-05
3.92779e-08
2.16489e-05
4.00199e-08
2.16476e-05
4.00616e-08
2.1646e-05
4.02811e-08
2.16443e-05
4.15043e-08
2.16428e-05
4.31729e-08
2.16414e-05
4.38829e-08
2.164e-05
4.31652e-08
2.16384e-05
4.22689e-08
2.16364e-05
4.2965e-08
2.16341e-05
4.56735e-08
2.16321e-05
4.88016e-08
2.16311e-05
4.98021e-08
2.16315e-05
4.69077e-08
2.16334e-05
4.01358e-08
2.16364e-05
3.10347e-08
2.164e-05
2.16695e-08
2.16435e-05
1.3666e-08
2.16465e-05
7.78589e-09
2.16488e-05
4.01621e-09
2.16503e-05
1.9035e-09
2.16512e-05
8.81782e-10
2.16516e-05
4.71056e-10
2.16517e-05
3.48593e-10
2.16517e-05
3.31569e-10
2.16515e-05
3.36942e-10
2.16513e-05
3.31686e-10
2.16511e-05
3.15623e-10
2.16509e-05
2.86647e-10
2.16508e-05
2.59027e-10
2.16506e-05
2.23586e-10
2.16505e-05
2.00309e-10
2.16504e-05
1.6585e-10
2.16503e-05
1.52471e-10
2.16502e-05
1.19288e-10
2.16501e-05
1.15897e-10
2.16501e-05
8.43325e-11
2.165e-05
8.64047e-11
2.165e-05
6.18969e-11
2.165e-05
5.83293e-11
2.16499e-05
5.33904e-11
2.16499e-05
2.81848e-11
2.16499e-05
5.58096e-11
2.16499e-05
1.14628e-12
2.16498e-05
5.51689e-11
2.16498e-05
-6.2582e-12
2.16498e-05
3.36623e-11
2.16498e-05
1.4085e-11
2.16498e-05
-2.6875e-12
2.16498e-05
3.58323e-11
2.16498e-05
-1.50961e-11
2.16498e-05
2.46797e-11
2.16498e-05
5.20704e-12
2.16498e-05
1.07189e-11
2.16498e-05
5.73785e-12
2.16498e-05
4.33791e-11
2.16498e-05
-1.75324e-11
2.16497e-05
9.72851e-11
2.16497e-05
-9.81962e-12
2.02702e-10
2.35617e-05
1.06886e-08
2.35624e-05
1.14625e-08
2.35635e-05
1.26614e-08
2.3565e-05
1.42418e-08
2.35667e-05
1.58986e-08
2.35683e-05
1.74808e-08
2.35699e-05
1.89386e-08
2.35713e-05
2.0162e-08
2.35722e-05
2.09871e-08
2.35729e-05
2.13342e-08
2.35737e-05
2.16023e-08
2.35746e-05
2.20064e-08
2.35758e-05
2.22932e-08
2.35773e-05
2.25768e-08
2.35788e-05
2.31547e-08
2.358e-05
2.38795e-08
2.3581e-05
2.44896e-08
2.35815e-05
2.49081e-08
2.35819e-05
2.51827e-08
2.35823e-05
2.55329e-08
2.35828e-05
2.60547e-08
2.35835e-05
2.66168e-08
2.35845e-05
2.72656e-08
2.35857e-05
2.81296e-08
2.35868e-05
2.89614e-08
2.35877e-05
2.94004e-08
2.35884e-05
2.96144e-08
2.35888e-05
2.99868e-08
2.35894e-05
3.05497e-08
2.35902e-05
3.11835e-08
2.35911e-05
3.18686e-08
2.35919e-05
3.25956e-08
2.35928e-05
3.32711e-08
2.35935e-05
3.37782e-08
2.35942e-05
3.4219e-08
2.3595e-05
3.48598e-08
2.35959e-05
3.5649e-08
2.35968e-05
3.62352e-08
2.35976e-05
3.66526e-08
2.35984e-05
3.73375e-08
2.35994e-05
3.82841e-08
2.36005e-05
3.89266e-08
2.36015e-05
3.9101e-08
2.36023e-05
3.94539e-08
2.36033e-05
4.05198e-08
2.36046e-05
4.18246e-08
2.36061e-05
4.2364e-08
2.36074e-05
4.18828e-08
2.36084e-05
4.1342e-08
2.36093e-05
4.19878e-08
2.3611e-05
4.40111e-08
2.36137e-05
4.61206e-08
2.36171e-05
4.63751e-08
2.36205e-05
4.34793e-08
2.36232e-05
3.75066e-08
2.36245e-05
2.96856e-08
2.36245e-05
2.16315e-08
2.36236e-05
1.46285e-08
2.36221e-05
9.30561e-09
2.36204e-05
5.69438e-09
2.36188e-05
3.47359e-09
2.36175e-05
2.21555e-09
2.36164e-05
1.54124e-09
2.36156e-05
1.18225e-09
2.36149e-05
9.75767e-10
2.36144e-05
8.38563e-10
2.3614e-05
7.29849e-10
2.36137e-05
6.37777e-10
2.36134e-05
5.52895e-10
2.36132e-05
4.80785e-10
2.3613e-05
4.11602e-10
2.36129e-05
3.58057e-10
2.36127e-05
3.01909e-10
2.36126e-05
2.65378e-10
2.36125e-05
2.18901e-10
2.36124e-05
1.96064e-10
2.36124e-05
1.57812e-10
2.36123e-05
1.42654e-10
2.36123e-05
1.15887e-10
2.36122e-05
9.81303e-11
2.36122e-05
9.13564e-11
2.36122e-05
5.85491e-11
2.36121e-05
7.89718e-11
2.36121e-05
2.77903e-11
2.36121e-05
6.55994e-11
2.36121e-05
1.79035e-11
2.36121e-05
3.71714e-11
2.3612e-05
3.21592e-11
2.3612e-05
1.26129e-12
2.3612e-05
4.60641e-11
2.3612e-05
-1.04645e-11
2.3612e-05
3.35734e-11
2.3612e-05
4.69016e-12
2.3612e-05
2.42209e-11
2.3612e-05
1.62927e-12
2.3612e-05
5.72679e-11
2.3612e-05
-1.4562e-11
2.3612e-05
1.01286e-10
2.3612e-05
1.29282e-11
1.80954e-10
2.56469e-05
1.01493e-08
2.56476e-05
1.07907e-08
2.56485e-05
1.17293e-08
2.56497e-05
1.30143e-08
2.56512e-05
1.44602e-08
2.56527e-05
1.59802e-08
2.56542e-05
1.73966e-08
2.56558e-05
1.86242e-08
2.56571e-05
1.96619e-08
2.56581e-05
2.03096e-08
2.5659e-05
2.07279e-08
2.56598e-05
2.12261e-08
2.56606e-05
2.1501e-08
2.56616e-05
2.15444e-08
2.56629e-05
2.18815e-08
2.56642e-05
2.25832e-08
2.56653e-05
2.33684e-08
2.56662e-05
2.39937e-08
2.56669e-05
2.44359e-08
2.56675e-05
2.49646e-08
2.5668e-05
2.55317e-08
2.56687e-05
2.58943e-08
2.56697e-05
2.62745e-08
2.56709e-05
2.70029e-08
2.5672e-05
2.78621e-08
2.56729e-05
2.8468e-08
2.56736e-05
2.88973e-08
2.56743e-05
2.93432e-08
2.5675e-05
2.98009e-08
2.56759e-05
3.03024e-08
2.56768e-05
3.09297e-08
2.56778e-05
3.16545e-08
2.56787e-05
3.23709e-08
2.56795e-05
3.29584e-08
2.56803e-05
3.34102e-08
2.56812e-05
3.39144e-08
2.56823e-05
3.45951e-08
2.56833e-05
3.52737e-08
2.56841e-05
3.58075e-08
2.56851e-05
3.63693e-08
2.56863e-05
3.70732e-08
2.56875e-05
3.76998e-08
2.56885e-05
3.81006e-08
2.56894e-05
3.85358e-08
2.56907e-05
3.92903e-08
2.56923e-05
4.01608e-08
2.56941e-05
4.06314e-08
2.56954e-05
4.05418e-08
2.56964e-05
4.0385e-08
2.56975e-05
4.08335e-08
2.56995e-05
4.19718e-08
2.57027e-05
4.29993e-08
2.57064e-05
4.26736e-08
2.57098e-05
4.00961e-08
2.5712e-05
3.52273e-08
2.57129e-05
2.88387e-08
2.57124e-05
2.20641e-08
2.57112e-05
1.59048e-08
2.57095e-05
1.09479e-08
2.57079e-05
7.34037e-09
2.57064e-05
4.92328e-09
2.57052e-05
3.4033e-09
2.57043e-05
2.48196e-09
2.57036e-05
1.92316e-09
2.5703e-05
1.56646e-09
2.57025e-05
1.31808e-09
2.57021e-05
1.12608e-09
2.57018e-05
9.68983e-10
2.57015e-05
8.32611e-10
2.57012e-05
7.17269e-10
2.5701e-05
6.1334e-10
2.57009e-05
5.28562e-10
2.57007e-05
4.48593e-10
2.57006e-05
3.88165e-10
2.57005e-05
3.26043e-10
2.57004e-05
2.83859e-10
2.57003e-05
2.36269e-10
2.57003e-05
2.04951e-10
2.57002e-05
1.72927e-10
2.57002e-05
1.42751e-10
2.57001e-05
1.31143e-10
2.57001e-05
9.24692e-11
2.57001e-05
1.03688e-10
2.57e-05
5.63087e-11
2.57e-05
7.80561e-11
2.57e-05
4.21721e-11
2.57e-05
4.3401e-11
2.57e-05
4.91328e-11
2.57e-05
8.03578e-12
2.57e-05
5.46794e-11
2.57e-05
-2.85916e-12
2.57e-05
3.99044e-11
2.56999e-05
8.3088e-12
2.56999e-05
3.30616e-11
2.56999e-05
3.97433e-12
2.56999e-05
6.35325e-11
2.56999e-05
-4.90398e-12
2.56999e-05
1.00462e-10
2.56999e-05
3.13247e-11
1.63093e-10
2.79171e-05
9.68828e-09
2.79175e-05
1.03638e-08
2.79181e-05
1.11386e-08
2.79189e-05
1.22269e-08
2.79199e-05
1.34575e-08
2.79211e-05
1.48014e-08
2.79224e-05
1.61364e-08
2.79237e-05
1.72869e-08
2.79251e-05
1.82492e-08
2.79264e-05
1.89883e-08
2.79276e-05
1.95431e-08
2.79287e-05
2.01729e-08
2.79296e-05
2.05803e-08
2.79305e-05
2.06233e-08
2.79316e-05
2.08135e-08
2.79327e-05
2.14224e-08
2.79338e-05
2.22747e-08
2.79348e-05
2.2999e-08
2.79358e-05
2.34889e-08
2.79366e-05
2.41289e-08
2.79373e-05
2.48789e-08
2.79379e-05
2.52313e-08
2.79389e-05
2.53469e-08
2.794e-05
2.58761e-08
2.79411e-05
2.67251e-08
2.79422e-05
2.74042e-08
2.79431e-05
2.79716e-08
2.79439e-05
2.85678e-08
2.79446e-05
2.90456e-08
2.79455e-05
2.94235e-08
2.79465e-05
2.99361e-08
2.79475e-05
3.06312e-08
2.79485e-05
3.1372e-08
2.79495e-05
3.20192e-08
2.79504e-05
3.25017e-08
2.79514e-05
3.29332e-08
2.79524e-05
3.35203e-08
2.79535e-05
3.42005e-08
2.79545e-05
3.47793e-08
2.79556e-05
3.53003e-08
2.79568e-05
3.58939e-08
2.7958e-05
3.6467e-08
2.79592e-05
3.68985e-08
2.79604e-05
3.73319e-08
2.79618e-05
3.7957e-08
2.79633e-05
3.86396e-08
2.79649e-05
3.90296e-08
2.79664e-05
3.90208e-08
2.79679e-05
3.89419e-08
2.79695e-05
3.92227e-08
2.79716e-05
3.98781e-08
2.79742e-05
4.0317e-08
2.79773e-05
3.965e-08
2.79801e-05
3.7235e-08
2.79823e-05
3.30461e-08
2.79835e-05
2.76516e-08
2.79837e-05
2.19009e-08
2.7983e-05
1.65664e-08
2.79818e-05
1.21279e-08
2.79804e-05
8.73955e-09
2.7979e-05
6.31697e-09
2.79778e-05
4.65918e-09
2.79767e-05
3.54577e-09
2.79758e-05
2.79211e-09
2.79751e-05
2.26472e-09
2.79746e-05
1.87822e-09
2.79741e-05
1.57938e-09
2.79738e-05
1.34003e-09
2.79734e-05
1.14061e-09
2.79732e-05
9.74712e-10
2.7973e-05
8.31163e-10
2.79728e-05
7.12133e-10
2.79726e-05
6.05816e-10
2.79725e-05
5.20152e-10
2.79724e-05
4.40462e-10
2.79723e-05
3.78567e-10
2.79722e-05
3.19618e-10
2.79721e-05
2.72727e-10
2.79721e-05
2.32961e-10
2.7972e-05
1.91869e-10
2.7972e-05
1.72621e-10
2.79719e-05
1.29866e-10
2.79719e-05
1.29672e-10
2.79719e-05
8.67651e-11
2.79719e-05
9.23987e-11
2.79719e-05
6.64209e-11
2.79718e-05
5.24196e-11
2.79718e-05
6.48853e-11
2.79718e-05
1.7576e-11
2.79718e-05
6.19861e-11
2.79718e-05
6.96643e-12
2.79718e-05
4.47537e-11
2.79718e-05
1.47211e-11
2.79718e-05
3.86605e-11
2.79718e-05
1.08155e-11
2.79718e-05
6.4525e-11
2.79718e-05
9.20367e-12
2.79718e-05
9.53784e-11
2.79718e-05
4.676e-11
1.48358e-10
3.03869e-05
9.31818e-09
3.03873e-05
1.00426e-08
3.03878e-05
1.06094e-08
3.03886e-05
1.1445e-08
3.03895e-05
1.2489e-08
3.03907e-05
1.36277e-08
3.03919e-05
1.49422e-08
3.03932e-05
1.60336e-08
3.03945e-05
1.6877e-08
3.03959e-05
1.76351e-08
3.03971e-05
1.83136e-08
3.03982e-05
1.90939e-08
3.03991e-05
1.96808e-08
3.03999e-05
1.98048e-08
3.04008e-05
1.98803e-08
3.0402e-05
2.03134e-08
3.04031e-05
2.1118e-08
3.04042e-05
2.19377e-08
3.04052e-05
2.24376e-08
3.04064e-05
2.29966e-08
3.04074e-05
2.38805e-08
3.04081e-05
2.44771e-08
3.04089e-05
2.45259e-08
3.041e-05
2.48192e-08
3.04111e-05
2.56207e-08
3.04122e-05
2.63382e-08
3.04132e-05
2.68965e-08
3.04142e-05
2.75819e-08
3.04151e-05
2.81669e-08
3.0416e-05
2.85018e-08
3.0417e-05
2.89272e-08
3.04181e-05
2.95611e-08
3.04192e-05
3.02505e-08
3.04203e-05
3.09558e-08
3.04212e-05
3.15397e-08
3.04223e-05
3.19109e-08
3.04234e-05
3.23436e-08
3.04246e-05
3.30111e-08
3.04257e-05
3.36755e-08
3.04269e-05
3.41609e-08
3.04282e-05
3.46131e-08
3.04295e-05
3.51265e-08
3.04308e-05
3.56107e-08
3.04321e-05
3.60479e-08
3.04335e-05
3.65229e-08
3.04351e-05
3.70015e-08
3.04369e-05
3.73176e-08
3.04385e-05
3.74045e-08
3.044e-05
3.74094e-08
3.04417e-05
3.75248e-08
3.04439e-05
3.77158e-08
3.04466e-05
3.76127e-08
3.04495e-05
3.66721e-08
3.04523e-05
3.44854e-08
3.04543e-05
3.10113e-08
3.04554e-05
2.65961e-08
3.04555e-05
2.18069e-08
3.04548e-05
1.72091e-08
3.04538e-05
1.32045e-08
3.04525e-05
9.97774e-09
3.04513e-05
7.52879e-09
3.04502e-05
5.74566e-09
3.04493e-05
4.47444e-09
3.04485e-05
3.56814e-09
3.04479e-05
2.90875e-09
3.04473e-05
2.41335e-09
3.04469e-05
2.02648e-09
3.04465e-05
1.71547e-09
3.04462e-05
1.4579e-09
3.04459e-05
1.24328e-09
3.04457e-05
1.05993e-09
3.04455e-05
9.0614e-10
3.04453e-05
7.7202e-10
3.04452e-05
6.60529e-10
3.04451e-05
5.61499e-10
3.0445e-05
4.79844e-10
3.04449e-05
4.07559e-10
3.04448e-05
3.45649e-10
3.04448e-05
2.96062e-10
3.04447e-05
2.44922e-10
3.04447e-05
2.16288e-10
3.04446e-05
1.6984e-10
3.04446e-05
1.57794e-10
3.04446e-05
1.18129e-10
3.04445e-05
1.09419e-10
3.04445e-05
9.00426e-11
3.04445e-05
6.45632e-11
3.04445e-05
7.91556e-11
3.04445e-05
2.99489e-11
3.04445e-05
6.80136e-11
3.04445e-05
1.87984e-11
3.04445e-05
4.84943e-11
3.04444e-05
2.2964e-11
3.04444e-05
4.27142e-11
3.04444e-05
1.91866e-11
3.04444e-05
6.44474e-11
3.04444e-05
2.24115e-11
3.04444e-05
9.06117e-11
3.04444e-05
5.81214e-11
1.36275e-10
3.30756e-05
8.83264e-09
3.3076e-05
9.65811e-09
3.30763e-05
1.02347e-08
3.30769e-05
1.08489e-08
3.30777e-05
1.17346e-08
3.30786e-05
1.27042e-08
3.30796e-05
1.39123e-08
3.30807e-05
1.4964e-08
3.30819e-05
1.56915e-08
3.30832e-05
1.63446e-08
3.30846e-05
1.69525e-08
3.30859e-05
1.77465e-08
3.30871e-05
1.85279e-08
3.3088e-05
1.88323e-08
3.30889e-05
1.89585e-08
3.30899e-05
1.9316e-08
3.3091e-05
2.00156e-08
3.30921e-05
2.08874e-08
3.30931e-05
2.1446e-08
3.30943e-05
2.18277e-08
3.30955e-05
2.2661e-08
3.30965e-05
2.35007e-08
3.30973e-05
2.36926e-08
3.30983e-05
2.38e-08
3.30994e-05
2.44848e-08
3.31005e-05
2.52452e-08
3.31017e-05
2.57515e-08
3.31028e-05
2.6424e-08
3.31039e-05
2.71455e-08
3.31048e-05
2.75342e-08
3.31059e-05
2.78958e-08
3.3107e-05
2.84701e-08
3.31081e-05
2.90623e-08
3.31094e-05
2.9723e-08
3.31105e-05
3.04215e-08
3.31115e-05
3.08621e-08
3.31127e-05
3.11592e-08
3.3114e-05
3.17095e-08
3.31153e-05
3.24064e-08
3.31165e-05
3.29129e-08
3.31179e-05
3.32869e-08
3.31193e-05
3.37267e-08
3.31207e-05
3.41961e-08
3.31221e-05
3.46034e-08
3.31237e-05
3.49825e-08
3.31253e-05
3.53439e-08
3.31271e-05
3.55904e-08
3.31288e-05
3.56604e-08
3.31306e-05
3.56286e-08
3.31325e-05
3.55999e-08
3.31347e-05
3.55302e-08
3.31371e-05
3.51581e-08
3.31397e-05
3.41118e-08
3.31421e-05
3.21119e-08
3.3144e-05
2.91299e-08
3.31451e-05
2.54103e-08
3.31456e-05
2.13639e-08
3.31454e-05
1.74139e-08
3.31447e-05
1.38776e-08
3.31438e-05
1.09198e-08
3.31427e-05
8.56843e-09
3.31417e-05
6.76162e-09
3.31408e-05
5.39742e-09
3.314e-05
4.36999e-09
3.31393e-05
3.58806e-09
3.31387e-05
2.98219e-09
3.31383e-05
2.50179e-09
3.31379e-05
2.11343e-09
3.31375e-05
1.79295e-09
3.31372e-05
1.5262e-09
3.3137e-05
1.30037e-09
3.31368e-05
1.11012e-09
3.31366e-05
9.46479e-10
3.31365e-05
8.08354e-10
3.31364e-05
6.88494e-10
3.31362e-05
5.86888e-10
3.31362e-05
4.99691e-10
3.31361e-05
4.23101e-10
3.3136e-05
3.62028e-10
3.3136e-05
3.01425e-10
3.31359e-05
2.62066e-10
3.31359e-05
2.1203e-10
3.31358e-05
1.88023e-10
3.31358e-05
1.50141e-10
3.31358e-05
1.29127e-10
3.31358e-05
1.12847e-10
3.31357e-05
7.9698e-11
3.31357e-05
9.21532e-11
3.31357e-05
4.45857e-11
3.31357e-05
7.33403e-11
3.31357e-05
3.18508e-11
3.31357e-05
5.18649e-11
3.31357e-05
3.21788e-11
3.31357e-05
4.60658e-11
3.31357e-05
2.79634e-11
3.31357e-05
6.43318e-11
3.31357e-05
3.35501e-11
3.31357e-05
8.70896e-11
3.31357e-05
6.57629e-11
1.26283e-10
3.60013e-05
8.39865e-09
3.60018e-05
9.21209e-09
3.60021e-05
9.88939e-09
3.60026e-05
1.03609e-08
3.60033e-05
1.10013e-08
3.60043e-05
1.1775e-08
3.60054e-05
1.27851e-08
3.60065e-05
1.38238e-08
3.60077e-05
1.45588e-08
3.60088e-05
1.51862e-08
3.601e-05
1.57528e-08
3.60113e-05
1.64756e-08
3.60125e-05
1.73552e-08
3.60135e-05
1.78438e-08
3.60144e-05
1.80413e-08
3.60154e-05
1.83303e-08
3.60165e-05
1.88851e-08
3.60177e-05
1.97184e-08
3.60187e-05
2.03734e-08
3.60199e-05
2.06921e-08
3.60212e-05
2.13296e-08
3.60224e-05
2.22921e-08
3.60234e-05
2.27478e-08
3.60243e-05
2.28256e-08
3.60255e-05
2.33321e-08
3.60266e-05
2.41029e-08
3.60278e-05
2.46003e-08
3.6029e-05
2.5163e-08
3.60302e-05
2.59397e-08
3.60313e-05
2.64469e-08
3.60324e-05
2.67963e-08
3.60336e-05
2.73152e-08
3.60348e-05
2.7842e-08
3.60361e-05
2.84097e-08
3.60374e-05
2.91415e-08
3.60386e-05
2.96849e-08
3.60398e-05
2.99289e-08
3.60412e-05
3.03292e-08
3.60426e-05
3.10071e-08
3.60439e-05
3.15625e-08
3.60453e-05
3.18875e-08
3.60468e-05
3.22264e-08
3.60484e-05
3.26502e-08
3.605e-05
3.30354e-08
3.60516e-05
3.33429e-08
3.60533e-05
3.36025e-08
3.60551e-05
3.37834e-08
3.6057e-05
3.3836e-08
3.60588e-05
3.37718e-08
3.60608e-05
3.362e-08
3.6063e-05
3.33294e-08
3.60654e-05
3.2735e-08
3.60679e-05
3.16171e-08
3.60702e-05
2.98111e-08
3.60721e-05
2.72983e-08
3.60732e-05
2.42282e-08
3.60737e-05
2.08667e-08
3.60736e-05
1.75086e-08
3.60731e-05
1.43984e-08
3.60723e-05
1.16888e-08
3.60715e-05
9.43716e-09
3.60706e-05
7.62786e-09
3.60698e-05
6.20271e-09
3.60691e-05
5.08845e-09
3.60685e-05
4.2142e-09
3.60679e-05
3.52098e-09
3.60675e-05
2.96288e-09
3.60671e-05
2.50709e-09
3.60667e-05
2.12925e-09
3.60664e-05
1.81335e-09
3.60662e-05
1.54613e-09
3.6066e-05
1.31994e-09
3.60658e-05
1.12635e-09
3.60657e-05
9.6154e-10
3.60655e-05
8.1992e-10
3.60654e-05
6.98392e-10
3.60653e-05
5.95166e-10
3.60652e-05
5.04087e-10
3.60652e-05
4.30487e-10
3.60651e-05
3.60489e-10
3.60651e-05
3.09933e-10
3.6065e-05
2.55636e-10
3.6065e-05
2.20448e-10
3.6065e-05
1.82306e-10
3.60649e-05
1.51336e-10
3.60649e-05
1.34919e-10
3.60649e-05
9.71557e-11
3.60649e-05
1.04472e-10
3.60649e-05
6.05187e-11
3.60649e-05
7.88384e-11
3.60648e-05
4.50468e-11
3.60648e-05
5.58747e-11
3.60648e-05
4.10456e-11
3.60648e-05
4.99121e-11
3.60648e-05
3.58711e-11
3.60648e-05
6.49285e-11
3.60648e-05
4.22888e-11
3.60648e-05
8.46381e-11
3.60648e-05
7.05366e-11
1.17803e-10
3.91858e-05
7.92272e-09
3.91864e-05
8.66067e-09
3.91869e-05
9.4087e-09
3.91873e-05
9.89352e-09
3.9188e-05
1.03741e-08
3.91887e-05
1.09985e-08
3.91897e-05
1.18216e-08
3.91907e-05
1.27954e-08
3.91917e-05
1.35508e-08
3.91928e-05
1.41225e-08
3.91939e-05
1.46259e-08
3.91952e-05
1.51935e-08
3.91966e-05
1.60157e-08
3.91977e-05
1.66882e-08
3.91987e-05
1.70302e-08
3.91997e-05
1.73437e-08
3.92008e-05
1.78029e-08
3.9202e-05
1.85208e-08
3.92031e-05
1.92368e-08
3.92042e-05
1.96084e-08
3.92055e-05
2.00484e-08
3.92069e-05
2.09118e-08
3.9208e-05
2.16058e-08
3.9209e-05
2.18102e-08
3.92102e-05
2.21532e-08
3.92115e-05
2.28515e-08
3.92127e-05
2.34073e-08
3.92139e-05
2.38776e-08
3.92153e-05
2.45954e-08
3.92165e-05
2.52288e-08
3.92177e-05
2.56136e-08
3.92189e-05
2.60641e-08
3.92202e-05
2.65614e-08
3.92216e-05
2.70476e-08
3.9223e-05
2.77098e-08
3.92244e-05
2.83421e-08